TITLE = "test"
FILETYPE = "FULL"
VARIABLES = "X" "ElectricField" "MagneticField" 
ZONE
T = "test1"
ZONETYPE = FEQUADRILATERAL
NODES = 100
ELEMENTS = 100
DATAPACKING = POINT
VARLOCATION = ([2,3] = NODAL)
VARSHARELIST = ([1, 2] = 1)
CONNECTIVITYSHAREZONE = 1
