TITLE = "test"
FILETYPE = "FULL"
VARIABLES = "X" "ElectricField" "MagneticField" 
ZONE
T = "CPU number:0"
I = 11
DATAPACKING = POINT
0 0 0 
0.1 0 0 
0.2 0 0 
0.3 0 0 
0.4 0 0 
0.5 0 0 
0.6 0 0 
0.7 0 0 
0.8 0 0 
0.9 0 0 
1 0 0 
