TITLE = "TEST"
VARIABLES = "X" "Ez " 
ZONE
T = " timestep_10" 
StrandID = 10
SOLUTIONTIME = 10
0  0
0.005  0
0.01  0
0.015  0
0.02  0
0.025  0
0.03  0
0.035  0
0.04  0
0.045  0
0.05  0
0.055  0
0.06  0
0.065  0
0.07  0
0.075  0
0.08  0
0.085  0
0.09  0
0.095  0
0.1  0
0.105  0
0.11  0
0.115  0
0.12  0
0.125  0
0.13  0
0.135  0
0.14  0
0.145  0
0.15  0
0.155  0
0.16  0
0.165  0
0.17  0
0.175  0
0.18  0
0.185  0
0.19  0
0.195  -0.00022263
0.2  0.00022263
0.205  -0.00022263
0.21  0.00022263
0.215  -0.00022263
0.22  0.00022263
0.225  -0.00022263
0.23  0.00022263
0.235  -0.00022263
0.24  0.00022263
0.245  0.0268292
0.25  0.0185383
0.255  0.0119325
0.26  0.00812968
0.265  0.00481913
0.27  0.00337374
0.275  0.00170782
0.28  0.00138186
0.285  0.000459698
0.29  0.000616299
0.295  0
0.3  0
0.305  0
0.31  0
0.315  0
0.32  0
0.325  0
0.33  0
0.335  0
0.34  0
0.345  0
0.35  0
0.355  0
0.36  0
0.365  0
0.37  0
0.375  0
0.38  0
0.385  0
0.39  0
0.395  0
0.4  0
0.405  0
0.41  0
0.415  0
0.42  0
0.425  0
0.43  0
0.435  0
0.44  0
0.445  0
0.45  0
0.455  0
0.46  0
0.465  0
0.47  0
0.475  0
0.48  0
0.485  0
0.49  0
0.495  0
0.5  0
0.505  0
0.51  0
0.515  0
0.52  0
0.525  0
0.53  0
0.535  0
0.54  0
0.545  0
0.55  0
0.555  0
0.56  0
0.565  0
0.57  0
0.575  0
0.58  0
0.585  0
0.59  0
0.595  0
0.6  0
0.605  0
0.61  0
0.615  0
0.62  0
0.625  0
0.63  0
0.635  0
0.64  0
0.645  0
0.65  0
0.655  0
0.66  0
0.665  0
0.67  0
0.675  0
0.68  0
0.685  0
0.69  0
0.695  0
0.7  0
0.705  0
0.71  0
0.715  0
0.72  0
0.725  0
0.73  0
0.735  0
0.74  0
0.745  0
0.75  0
0.755  0
0.76  0
0.765  0
0.77  0
0.775  0
0.78  0
0.785  0
0.79  0
0.795  0
0.8  0
0.805  0
0.81  0
0.815  0
0.82  0
0.825  0
0.83  0
0.835  0
0.84  0
0.845  0
0.85  0
0.855  0
0.86  0
0.865  0
0.87  0
0.875  0
0.88  0
0.885  0
0.89  0
0.895  0
0.9  0
0.905  0
0.91  0
0.915  0
0.92  0
0.925  0
0.93  0
0.935  0
0.94  0
0.945  0
0.95  0
0.955  0
0.96  0
0.965  0
0.97  0
0.975  0
0.98  0
0.985  0
0.99  0
0.995  0
1  0

ZONE
T = " timestep_20" 
StrandID = 20
SOLUTIONTIME = 20
0  0
0.005  0
0.01  0
0.015  0
0.02  0
0.025  0
0.03  0
0.035  0
0.04  0
0.045  0
0.05  0
0.055  0
0.06  0
0.065  0
0.07  0
0.075  0
0.08  0
0.085  0
0.09  0
0.095  0
0.1  0
0.105  0
0.11  0
0.115  0
0.12  0
0.125  0
0.13  0
0.135  0
0.14  0
0.145  -0.00022263
0.15  0.00022263
0.155  -0.00022263
0.16  0.00022263
0.165  -0.00022263
0.17  0.00022263
0.175  -0.00022263
0.18  0.00022263
0.185  -0.00022263
0.19  0.00022263
0.195  -0.00022263
0.2  0.00022263
0.205  -0.00022263
0.21  0.00022263
0.215  -0.00022263
0.22  0.00022263
0.225  -0.00022263
0.23  0.00022263
0.235  -0.00022263
0.24  0.00022263
0.245  0.444635
0.25  0.368102
0.255  0.297975
0.26  0.23715
0.265  0.184297
0.27  0.141081
0.275  0.105177
0.28  0.0775274
0.285  0.0553536
0.29  0.0393865
0.295  0.0268292
0.3  0.0185383
0.305  0.0119325
0.31  0.00812968
0.315  0.00481913
0.32  0.00337374
0.325  0.00170782
0.33  0.00138186
0.335  0.000459698
0.34  0.000616299
0.345  0
0.35  0
0.355  0
0.36  0
0.365  0
0.37  0
0.375  0
0.38  0
0.385  0
0.39  0
0.395  0
0.4  0
0.405  0
0.41  0
0.415  0
0.42  0
0.425  0
0.43  0
0.435  0
0.44  0
0.445  0
0.45  0
0.455  0
0.46  0
0.465  0
0.47  0
0.475  0
0.48  0
0.485  0
0.49  0
0.495  0
0.5  0
0.505  0
0.51  0
0.515  0
0.52  0
0.525  0
0.53  0
0.535  0
0.54  0
0.545  0
0.55  0
0.555  0
0.56  0
0.565  0
0.57  0
0.575  0
0.58  0
0.585  0
0.59  0
0.595  0
0.6  0
0.605  0
0.61  0
0.615  0
0.62  0
0.625  0
0.63  0
0.635  0
0.64  0
0.645  0
0.65  0
0.655  0
0.66  0
0.665  0
0.67  0
0.675  0
0.68  0
0.685  0
0.69  0
0.695  0
0.7  0
0.705  0
0.71  0
0.715  0
0.72  0
0.725  0
0.73  0
0.735  0
0.74  0
0.745  0
0.75  0
0.755  0
0.76  0
0.765  0
0.77  0
0.775  0
0.78  0
0.785  0
0.79  0
0.795  0
0.8  0
0.805  0
0.81  0
0.815  0
0.82  0
0.825  0
0.83  0
0.835  0
0.84  0
0.845  0
0.85  0
0.855  0
0.86  0
0.865  0
0.87  0
0.875  0
0.88  0
0.885  0
0.89  0
0.895  0
0.9  0
0.905  0
0.91  0
0.915  0
0.92  0
0.925  0
0.93  0
0.935  0
0.94  0
0.945  0
0.95  0
0.955  0
0.96  0
0.965  0
0.97  0
0.975  0
0.98  0
0.985  0
0.99  0
0.995  0
1  0

ZONE
T = " timestep_30" 
StrandID = 30
SOLUTIONTIME = 30
0  0
0.005  0
0.01  0
0.015  0
0.02  0
0.025  0
0.03  0
0.035  0
0.04  0
0.045  0
0.05  0
0.055  0
0.06  0
0.065  0
0.07  0
0.075  0
0.08  0
0.085  0
0.09  0
0.095  -0.00022263
0.1  0.00022263
0.105  -0.00022263
0.11  0.00022263
0.115  -0.00022263
0.12  0.00022263
0.125  -0.00022263
0.13  0.00022263
0.135  -0.00022263
0.14  0.00022263
0.145  -0.00022263
0.15  0.00022263
0.155  -0.00022263
0.16  0.00022263
0.165  -0.00022263
0.17  0.00022263
0.175  -0.00022263
0.18  0.00022263
0.185  -0.00022263
0.19  0.00022263
0.195  -0.00022263
0.2  0.00022263
0.205  -0.00022263
0.21  0.00022263
0.215  -0.00022263
0.22  0.00022263
0.225  -0.00022263
0.23  0.00022263
0.235  -0.00022263
0.24  0.00022263
0.245  0.989827
0.25  1.00022
0.255  0.989827
0.26  0.961012
0.265  0.913709
0.27  0.852366
0.275  0.778578
0.28  0.697899
0.285  0.612404
0.29  0.527515
0.295  0.444635
0.3  0.368102
0.305  0.297975
0.31  0.23715
0.315  0.184297
0.32  0.141081
0.325  0.105177
0.33  0.0775274
0.335  0.0553536
0.34  0.0393865
0.345  0.0268292
0.35  0.0185383
0.355  0.0119325
0.36  0.00812968
0.365  0.00481913
0.37  0.00337374
0.375  0.00170782
0.38  0.00138186
0.385  0.000459698
0.39  0.000616299
0.395  0
0.4  0
0.405  0
0.41  0
0.415  0
0.42  0
0.425  0
0.43  0
0.435  0
0.44  0
0.445  0
0.45  0
0.455  0
0.46  0
0.465  0
0.47  0
0.475  0
0.48  0
0.485  0
0.49  0
0.495  0
0.5  0
0.505  0
0.51  0
0.515  0
0.52  0
0.525  0
0.53  0
0.535  0
0.54  0
0.545  0
0.55  0
0.555  0
0.56  0
0.565  0
0.57  0
0.575  0
0.58  0
0.585  0
0.59  0
0.595  0
0.6  0
0.605  0
0.61  0
0.615  0
0.62  0
0.625  0
0.63  0
0.635  0
0.64  0
0.645  0
0.65  0
0.655  0
0.66  0
0.665  0
0.67  0
0.675  0
0.68  0
0.685  0
0.69  0
0.695  0
0.7  0
0.705  0
0.71  0
0.715  0
0.72  0
0.725  0
0.73  0
0.735  0
0.74  0
0.745  0
0.75  0
0.755  0
0.76  0
0.765  0
0.77  0
0.775  0
0.78  0
0.785  0
0.79  0
0.795  0
0.8  0
0.805  0
0.81  0
0.815  0
0.82  0
0.825  0
0.83  0
0.835  0
0.84  0
0.845  0
0.85  0
0.855  0
0.86  0
0.865  0
0.87  0
0.875  0
0.88  0
0.885  0
0.89  0
0.895  0
0.9  0
0.905  0
0.91  0
0.915  0
0.92  0
0.925  0
0.93  0
0.935  0
0.94  0
0.945  0
0.95  0
0.955  0
0.96  0
0.965  0
0.97  0
0.975  0
0.98  0
0.985  0
0.99  0
0.995  0
1  0

ZONE
T = " timestep_40" 
StrandID = 40
SOLUTIONTIME = 40
0  0
0.005  0
0.01  0
0.015  0
0.02  0
0.025  0
0.03  0
0.035  0
0.04  0
0.045  -0.00022263
0.05  0.00022263
0.055  -0.00022263
0.06  0.00022263
0.065  -0.00022263
0.07  0.00022263
0.075  -0.00022263
0.08  0.00022263
0.085  -0.00022263
0.09  0.00022263
0.095  -0.00022263
0.1  0.00022263
0.105  -0.00022263
0.11  0.00022263
0.115  -0.00022263
0.12  0.00022263
0.125  -0.00022263
0.13  0.00022263
0.135  -0.00022263
0.14  0.00022263
0.145  -0.00022263
0.15  0.00022263
0.155  -0.00022263
0.16  0.00022263
0.165  -0.00022263
0.17  0.00022263
0.175  -0.00022263
0.18  0.00022263
0.185  -0.00022263
0.19  0.00022263
0.195  -0.00022263
0.2  0.00022263
0.205  -0.00022263
0.21  0.00022263
0.215  -0.00022263
0.22  0.00022263
0.225  -0.00022263
0.23  0.00022263
0.235  -0.00022263
0.24  0.00022263
0.245  0.297975
0.25  0.368102
0.255  0.444635
0.26  0.527515
0.265  0.612404
0.27  0.697899
0.275  0.778578
0.28  0.852366
0.285  0.913709
0.29  0.961012
0.295  0.989827
0.3  1.00022
0.305  0.989827
0.31  0.961012
0.315  0.913709
0.32  0.852366
0.325  0.778578
0.33  0.697899
0.335  0.612404
0.34  0.527515
0.345  0.444635
0.35  0.368102
0.355  0.297975
0.36  0.23715
0.365  0.184297
0.37  0.141081
0.375  0.105177
0.38  0.0775274
0.385  0.0553536
0.39  0.0393865
0.395  0.0268292
0.4  0.0185383
0.405  0.0119325
0.41  0.00812968
0.415  0.00481913
0.42  0.00337374
0.425  0.00170782
0.43  0.00138186
0.435  0.000459698
0.44  0.000616299
0.445  0
0.45  0
0.455  0
0.46  0
0.465  0
0.47  0
0.475  0
0.48  0
0.485  0
0.49  0
0.495  0
0.5  0
0.505  0
0.51  0
0.515  0
0.52  0
0.525  0
0.53  0
0.535  0
0.54  0
0.545  0
0.55  0
0.555  0
0.56  0
0.565  0
0.57  0
0.575  0
0.58  0
0.585  0
0.59  0
0.595  0
0.6  0
0.605  0
0.61  0
0.615  0
0.62  0
0.625  0
0.63  0
0.635  0
0.64  0
0.645  0
0.65  0
0.655  0
0.66  0
0.665  0
0.67  0
0.675  0
0.68  0
0.685  0
0.69  0
0.695  0
0.7  0
0.705  0
0.71  0
0.715  0
0.72  0
0.725  0
0.73  0
0.735  0
0.74  0
0.745  0
0.75  0
0.755  0
0.76  0
0.765  0
0.77  0
0.775  0
0.78  0
0.785  0
0.79  0
0.795  0
0.8  0
0.805  0
0.81  0
0.815  0
0.82  0
0.825  0
0.83  0
0.835  0
0.84  0
0.845  0
0.85  0
0.855  0
0.86  0
0.865  0
0.87  0
0.875  0
0.88  0
0.885  0
0.89  0
0.895  0
0.9  0
0.905  0
0.91  0
0.915  0
0.92  0
0.925  0
0.93  0
0.935  0
0.94  0
0.945  0
0.95  0
0.955  0
0.96  0
0.965  0
0.97  0
0.975  0
0.98  0
0.985  0
0.99  0
0.995  0
1  0

ZONE
T = " timestep_50" 
StrandID = 50
SOLUTIONTIME = 50
0  0.00022263
0.005  -0.00022263
0.01  0.00022263
0.015  -0.00022263
0.02  0.00022263
0.025  -0.00022263
0.03  0.00022263
0.035  -0.00022263
0.04  0.00022263
0.045  -0.00022263
0.05  0.00022263
0.055  -0.00022263
0.06  0.00022263
0.065  -0.00022263
0.07  0.00022263
0.075  -0.00022263
0.08  0.00022263
0.085  -0.00022263
0.09  0.00022263
0.095  -0.00022263
0.1  0.00022263
0.105  -0.00022263
0.11  0.00022263
0.115  -0.00022263
0.12  0.00022263
0.125  -0.00022263
0.13  0.00022263
0.135  -0.00022263
0.14  0.00022263
0.145  -0.00022263
0.15  0.00022263
0.155  -0.00022263
0.16  0.00022263
0.165  -0.00022263
0.17  0.00022263
0.175  -0.00022263
0.18  0.00022263
0.185  -0.00022263
0.19  0.00022263
0.195  -0.00022263
0.2  0.00022263
0.205  -0.00022263
0.21  0.00022263
0.215  -0.00022263
0.22  0.00022263
0.225  -0.00022263
0.23  0.00022263
0.235  -0.00022263
0.24  0.00022263
0.245  0.0119325
0.25  0.0185383
0.255  0.0268292
0.26  0.0393865
0.265  0.0553536
0.27  0.0775274
0.275  0.105177
0.28  0.141081
0.285  0.184297
0.29  0.23715
0.295  0.297975
0.3  0.368102
0.305  0.444635
0.31  0.527515
0.315  0.612404
0.32  0.697899
0.325  0.778578
0.33  0.852366
0.335  0.913709
0.34  0.961012
0.345  0.989827
0.35  1.00022
0.355  0.989827
0.36  0.961012
0.365  0.913709
0.37  0.852366
0.375  0.778578
0.38  0.697899
0.385  0.612404
0.39  0.527515
0.395  0.444635
0.4  0.368102
0.405  0.297975
0.41  0.23715
0.415  0.184297
0.42  0.141081
0.425  0.105177
0.43  0.0775274
0.435  0.0553536
0.44  0.0393865
0.445  0.0268292
0.45  0.0185383
0.455  0.0119325
0.46  0.00812968
0.465  0.00481913
0.47  0.00337374
0.475  0.00170782
0.48  0.00138186
0.485  0.000459698
0.49  0.000616299
0.495  0
0.5  0
0.505  0
0.51  0
0.515  0
0.52  0
0.525  0
0.53  0
0.535  0
0.54  0
0.545  0
0.55  0
0.555  0
0.56  0
0.565  0
0.57  0
0.575  0
0.58  0
0.585  0
0.59  0
0.595  0
0.6  0
0.605  0
0.61  0
0.615  0
0.62  0
0.625  0
0.63  0
0.635  0
0.64  0
0.645  0
0.65  0
0.655  0
0.66  0
0.665  0
0.67  0
0.675  0
0.68  0
0.685  0
0.69  0
0.695  0
0.7  0
0.705  0
0.71  0
0.715  0
0.72  0
0.725  0
0.73  0
0.735  0
0.74  0
0.745  0
0.75  0
0.755  0
0.76  0
0.765  0
0.77  0
0.775  0
0.78  0
0.785  0
0.79  0
0.795  0
0.8  0
0.805  0
0.81  0
0.815  0
0.82  0
0.825  0
0.83  0
0.835  0
0.84  0
0.845  0
0.85  0
0.855  0
0.86  0
0.865  0
0.87  0
0.875  0
0.88  0
0.885  0
0.89  0
0.895  0
0.9  0
0.905  0
0.91  0
0.915  0
0.92  0
0.925  0
0.93  0
0.935  0
0.94  0
0.945  0
0.95  0
0.955  0
0.96  0
0.965  0
0.97  0
0.975  0
0.98  0
0.985  0
0.99  0
0.995  0
1  0

ZONE
T = " timestep_60" 
StrandID = 60
SOLUTIONTIME = 60
0  0.00022263
0.005  -0.00022263
0.01  0.00022263
0.015  -0.00022263
0.02  0.00022263
0.025  -0.00022263
0.03  0.00022263
0.035  -0.00022263
0.04  0.00022263
0.045  -0.00022263
0.05  0.00022263
0.055  -0.00022263
0.06  0.00022263
0.065  -0.00022263
0.07  0.00022263
0.075  -0.00022263
0.08  0.00022263
0.085  -0.00022263
0.09  0.00022263
0.095  -0.00022263
0.1  0.00022263
0.105  -0.00022263
0.11  0.00022263
0.115  -0.00022263
0.12  0.00022263
0.125  -0.00022263
0.13  0.00022263
0.135  -0.00022263
0.14  0.00022263
0.145  -0.00022263
0.15  0.00022263
0.155  -0.00022263
0.16  0.00022263
0.165  -0.00022263
0.17  0.00022263
0.175  -0.00022263
0.18  0.00022263
0.185  -0.00022263
0.19  0.00022263
0.195  -0.00022263
0.2  0.00022263
0.205  -0.00022263
0.21  0.00022263
0.215  -0.00022263
0.22  0.00022263
0.225  -0.00022263
0.23  0.00022263
0.235  -0.00022263
0.24  0.00022263
0.245  -0.000155575
0.25  0.00034604
0.255  3.42746e-14
0.26  0.000616299
0.265  0.000459698
0.27  0.00138186
0.275  0.00170782
0.28  0.00337374
0.285  0.00481913
0.29  0.00812968
0.295  0.0119325
0.3  0.0185383
0.305  0.0268292
0.31  0.0393865
0.315  0.0553536
0.32  0.0775274
0.325  0.105177
0.33  0.141081
0.335  0.184297
0.34  0.23715
0.345  0.297975
0.35  0.368102
0.355  0.444635
0.36  0.527515
0.365  0.612404
0.37  0.697899
0.375  0.778578
0.38  0.852366
0.385  0.913709
0.39  0.961012
0.395  0.989827
0.4  1.00022
0.405  0.989827
0.41  0.961012
0.415  0.913709
0.42  0.852366
0.425  0.778578
0.43  0.697899
0.435  0.612404
0.44  0.527515
0.445  0.444635
0.45  0.368102
0.455  0.297975
0.46  0.236603
0.465  0.18401
0.47  0.140031
0.475  0.104048
0.48  0.0751194
0.485  0.0521029
0.49  0.0337547
0.495  0.0188029
0.5  0.00599652
0.505  0.00168829
0.51  0.000390299
0.515  6.16782e-05
0.52  6.01808e-06
0.525  3.51217e-07
0.53  1.18823e-08
0.535  2.14298e-10
0.54  1.59078e-12
0.545  0
0.55  0
0.555  0
0.56  0
0.565  0
0.57  0
0.575  0
0.58  0
0.585  0
0.59  0
0.595  0
0.6  0
0.605  0
0.61  0
0.615  0
0.62  0
0.625  0
0.63  0
0.635  0
0.64  0
0.645  0
0.65  0
0.655  0
0.66  0
0.665  0
0.67  0
0.675  0
0.68  0
0.685  0
0.69  0
0.695  0
0.7  0
0.705  0
0.71  0
0.715  0
0.72  0
0.725  0
0.73  0
0.735  0
0.74  0
0.745  0
0.75  0
0.755  0
0.76  0
0.765  0
0.77  0
0.775  0
0.78  0
0.785  0
0.79  0
0.795  0
0.8  0
0.805  0
0.81  0
0.815  0
0.82  0
0.825  0
0.83  0
0.835  0
0.84  0
0.845  0
0.85  0
0.855  0
0.86  0
0.865  0
0.87  0
0.875  0
0.88  0
0.885  0
0.89  0
0.895  0
0.9  0
0.905  0
0.91  0
0.915  0
0.92  0
0.925  0
0.93  0
0.935  0
0.94  0
0.945  0
0.95  0
0.955  0
0.96  0
0.965  0
0.97  0
0.975  0
0.98  0
0.985  0
0.99  0
0.995  0
1  0

ZONE
T = " timestep_70" 
StrandID = 70
SOLUTIONTIME = 70
0  0.00022263
0.005  -0.00022263
0.01  0.00022263
0.015  -0.00022263
0.02  0.00022263
0.025  -0.00022263
0.03  0.00022263
0.035  -0.00022263
0.04  0.00022263
0.045  -0.00022263
0.05  0.00022263
0.055  -0.00022263
0.06  0.00022263
0.065  -0.00022263
0.07  0.00022263
0.075  -0.00022263
0.08  0.00022263
0.085  -0.00022263
0.09  0.00022263
0.095  -0.00022263
0.1  0.00022263
0.105  -0.00022263
0.11  0.00022263
0.115  -0.00022263
0.12  0.00022263
0.125  -0.00022263
0.13  0.00022263
0.135  -0.00022263
0.14  0.00022263
0.145  -0.00022263
0.15  0.00022263
0.155  -0.00022263
0.16  0.00022263
0.165  -0.00022263
0.17  0.00022263
0.175  -0.00022263
0.18  0.00022263
0.185  -0.00022263
0.19  0.00022263
0.195  -0.00022263
0.2  0.00022263
0.205  -0.00022263
0.21  0.00022263
0.215  -0.00022263
0.22  0.00022263
0.225  -0.00022263
0.23  0.00022263
0.235  -0.00022263
0.24  0.00022263
0.245  -0.00022258
0.25  0.000222742
0.255  -0.000222382
0.26  0.000223165
0.265  -0.000221496
0.27  0.000224982
0.275  -0.000217845
0.28  0.00023217
0.285  -0.000203986
0.29  0.000258343
0.295  -0.000155575
0.3  0.00034604
0.305  4.62159e-14
0.31  0.000616299
0.315  0.000459698
0.32  0.00138186
0.325  0.00170782
0.33  0.00337374
0.335  0.00481913
0.34  0.00812968
0.345  0.0119325
0.35  0.0185383
0.355  0.0268292
0.36  0.0393865
0.365  0.0553536
0.37  0.0775274
0.375  0.105177
0.38  0.141081
0.385  0.184297
0.39  0.23715
0.395  0.297975
0.4  0.368102
0.405  0.444635
0.41  0.526967
0.415  0.612117
0.42  0.696849
0.425  0.77745
0.43  0.849958
0.435  0.910458
0.44  0.95538
0.445  0.981801
0.45  0.987681
0.455  0.972029
0.46  0.934963
0.465  0.877668
0.47  0.802253
0.475  0.71155
0.48  0.60886
0.485  0.497709
0.49  0.381622
0.495  0.26396
0.5  0.147807
0.505  0.0700532
0.51  0.0284868
0.515  0.0100936
0.52  0.0031528
0.525  0.000850813
0.53  0.000188773
0.535  3.29492e-05
0.54  4.42212e-06
0.545  4.53055e-07
0.55  3.5405e-08
0.555  2.10963e-09
0.56  9.5513e-11
0.565  3.25571e-12
0.57  8.20732e-14
0.575  1.48243e-15
0.58  1.81322e-17
0.585  1.34457e-19
0.59  4.5623e-22
0.595  0
0.6  0
0.605  0
0.61  0
0.615  0
0.62  0
0.625  0
0.63  0
0.635  0
0.64  0
0.645  0
0.65  0
0.655  0
0.66  0
0.665  0
0.67  0
0.675  0
0.68  0
0.685  0
0.69  0
0.695  0
0.7  0
0.705  0
0.71  0
0.715  0
0.72  0
0.725  0
0.73  0
0.735  0
0.74  0
0.745  0
0.75  0
0.755  0
0.76  0
0.765  0
0.77  0
0.775  0
0.78  0
0.785  0
0.79  0
0.795  0
0.8  0
0.805  0
0.81  0
0.815  0
0.82  0
0.825  0
0.83  0
0.835  0
0.84  0
0.845  0
0.85  0
0.855  0
0.86  0
0.865  0
0.87  0
0.875  0
0.88  0
0.885  0
0.89  0
0.895  0
0.9  0
0.905  0
0.91  0
0.915  0
0.92  0
0.925  0
0.93  0
0.935  0
0.94  0
0.945  0
0.95  0
0.955  0
0.96  0
0.965  0
0.97  0
0.975  0
0.98  0
0.985  0
0.99  0
0.995  0
1  0

ZONE
T = " timestep_80" 
StrandID = 80
SOLUTIONTIME = 80
0  0.00022263
0.005  -0.00022263
0.01  0.00022263
0.015  -0.00022263
0.02  0.00022263
0.025  -0.00022263
0.03  0.00022263
0.035  -0.00022263
0.04  0.00022263
0.045  -0.00022263
0.05  0.00022263
0.055  -0.00022263
0.06  0.00022263
0.065  -0.00022263
0.07  0.00022263
0.075  -0.00022263
0.08  0.00022263
0.085  -0.00022263
0.09  0.00022263
0.095  -0.00022263
0.1  0.00022263
0.105  -0.00022263
0.11  0.00022263
0.115  -0.00022263
0.12  0.00022263
0.125  -0.00022263
0.13  0.00022263
0.135  -0.00022263
0.14  0.00022263
0.145  -0.00022263
0.15  0.00022263
0.155  -0.00022263
0.16  0.00022263
0.165  -0.00022263
0.17  0.00022263
0.175  -0.00022263
0.18  0.00022263
0.185  -0.00022263
0.19  0.00022263
0.195  -0.00022263
0.2  0.00022263
0.205  -0.00022263
0.21  0.00022263
0.215  -0.00022263
0.22  0.00022263
0.225  -0.00022263
0.23  0.00022263
0.235  -0.00022263
0.24  0.00022263
0.245  -0.00022263
0.25  0.00022263
0.255  -0.00022263
0.26  0.00022263
0.265  -0.00022263
0.27  0.000222631
0.275  -0.000222628
0.28  0.000222634
0.285  -0.000222621
0.29  0.000222652
0.295  -0.00022258
0.3  0.000222742
0.305  -0.000222382
0.31  0.000223165
0.315  -0.000221496
0.32  0.000224982
0.325  -0.000217845
0.33  0.00023217
0.335  -0.000203986
0.34  0.000258343
0.345  -0.000155575
0.35  0.00034604
0.355  5.71253e-14
0.36  6.84777e-05
0.365  0.000172816
0.37  0.000332266
0.375  0.000579399
0.38  0.000965747
0.385  0.00156844
0.39  0.00249788
0.395  0.00390624
0.4  0.00599652
0.405  0.00903105
0.41  0.0133378
0.415  0.0193127
0.42  0.0274141
0.425  0.0381485
0.43  0.0520424
0.435  0.0696018
0.44  0.0912574
0.445  0.117299
0.45  0.147807
0.455  0.182582
0.46  0.221089
0.465  0.262432
0.47  0.305346
0.475  0.348242
0.48  0.389288
0.485  0.426529
0.49  0.458037
0.495  0.482073
0.5  0.497247
0.505  0.424456
0.51  0.301765
0.515  0.180717
0.52  0.0923598
0.525  0.0408099
0.53  0.0158044
0.535  0.00541707
0.54  0.00163789
0.545  0.00042941
0.55  9.55789e-05
0.555  1.77778e-05
0.56  2.7407e-06
0.565  3.49345e-07
0.57  3.6844e-08
0.575  3.22109e-09
0.58  2.33841e-10
0.585  1.4109e-11
0.59  7.07132e-13
0.595  2.93718e-14
0.6  1.00647e-15
0.605  2.82418e-17
0.61  6.41715e-19
0.615  1.16144e-20
0.62  1.63404e-22
0.625  1.72152e-24
0.63  1.27728e-26
0.635  5.94971e-29
0.64  1.30845e-31
0.645  0
0.65  0
0.655  0
0.66  0
0.665  0
0.67  0
0.675  0
0.68  0
0.685  0
0.69  0
0.695  0
0.7  0
0.705  0
0.71  0
0.715  0
0.72  0
0.725  0
0.73  0
0.735  0
0.74  0
0.745  0
0.75  0
0.755  0
0.76  0
0.765  0
0.77  0
0.775  0
0.78  0
0.785  0
0.79  0
0.795  0
0.8  0
0.805  0
0.81  0
0.815  0
0.82  0
0.825  0
0.83  0
0.835  0
0.84  0
0.845  0
0.85  0
0.855  0
0.86  0
0.865  0
0.87  0
0.875  0
0.88  0
0.885  0
0.89  0
0.895  0
0.9  0
0.905  0
0.91  0
0.915  0
0.92  0
0.925  0
0.93  0
0.935  0
0.94  0
0.945  0
0.95  0
0.955  0
0.96  0
0.965  0
0.97  0
0.975  0
0.98  0
0.985  0
0.99  0
0.995  0
1  0

ZONE
T = " timestep_90" 
StrandID = 90
SOLUTIONTIME = 90
0  0.00022263
0.005  -0.00022263
0.01  0.00022263
0.015  -0.00022263
0.02  0.00022263
0.025  -0.00022263
0.03  0.00022263
0.035  -0.00022263
0.04  0.00022263
0.045  -0.00022263
0.05  0.00022263
0.055  -0.00022263
0.06  0.00022263
0.065  -0.00022263
0.07  0.00022263
0.075  -0.00022263
0.08  0.00022263
0.085  -0.00022263
0.09  0.00022263
0.095  -0.00022263
0.1  0.00022263
0.105  -0.00022263
0.11  0.00022263
0.115  -0.00022263
0.12  0.00022263
0.125  -0.00022263
0.13  0.00022263
0.135  -0.00022263
0.14  0.00022263
0.145  -0.00022263
0.15  0.00022263
0.155  -0.00022263
0.16  0.00022263
0.165  -0.00022263
0.17  0.00022263
0.175  -0.00022263
0.18  0.00022263
0.185  -0.00022263
0.19  0.00022263
0.195  -0.00022263
0.2  0.00022263
0.205  -0.00022263
0.21  0.00022263
0.215  -0.00022263
0.22  0.00022263
0.225  -0.00022263
0.23  0.00022263
0.235  -0.00022263
0.24  0.00022263
0.245  -0.00022263
0.25  0.00022263
0.255  -0.00022263
0.26  0.00022263
0.265  -0.00022263
0.27  0.00022263
0.275  -0.00022263
0.28  0.00022263
0.285  -0.00022263
0.29  0.00022263
0.295  -0.00022263
0.3  0.00022263
0.305  -0.00022263
0.31  -0.000325191
0.315  -0.000509512
0.32  -0.000826962
0.325  -0.00135105
0.33  -0.00218536
0.335  -0.00347331
0.34  -0.00540916
0.345  -0.00824889
0.35  -0.012319
0.355  -0.0180205
0.36  -0.0258255
0.365  -0.0362624
0.37  -0.0498883
0.375  -0.067246
0.38  -0.0888065
0.385  -0.114899
0.39  -0.145635
0.395  -0.180831
0.4  -0.219949
0.405  -0.262054
0.41  -0.305809
0.415  -0.349512
0.42  -0.391171
0.425  -0.428628
0.43  -0.459704
0.435  -0.48236
0.44  -0.494845
0.445  -0.495821
0.45  -0.484438
0.455  -0.460352
0.46  -0.423694
0.465  -0.374983
0.47  -0.315025
0.475  -0.244793
0.48  -0.165342
0.485  -0.0777551
0.49  0.0168566
0.495  0.117299
0.5  0.222207
0.505  0.352515
0.51  0.463236
0.515  0.502116
0.52  0.450714
0.525  0.338424
0.53  0.215341
0.535  0.117664
0.54  0.0559219
0.545  0.0234046
0.55  0.00870768
0.555  0.00288785
0.56  0.000849439
0.565  0.0002195
0.57  4.93606e-05
0.575  9.59642e-06
0.58  1.60776e-06
0.585  2.31983e-07
0.59  2.88574e-08
0.595  3.10034e-09
0.6  2.88256e-10
0.605  2.32355e-11
0.61  1.62604e-12
0.615  9.8869e-14
0.62  5.22367e-15
0.625  2.39641e-16
0.63  9.53008e-18
0.635  3.27638e-19
0.64  9.69866e-21
0.645  2.45831e-22
0.65  5.29547e-24
0.655  9.59719e-26
0.66  1.44367e-27
0.665  1.7693e-29
0.67  1.72083e-31
0.675  1.27737e-33
0.68  6.79567e-36
0.685  2.30678e-38
0.69  3.75261e-41
0.695  0
0.7  0
0.705  0
0.71  0
0.715  0
0.72  0
0.725  0
0.73  0
0.735  0
0.74  0
0.745  0
0.75  0
0.755  0
0.76  0
0.765  0
0.77  0
0.775  0
0.78  0
0.785  0
0.79  0
0.795  0
0.8  0
0.805  0
0.81  0
0.815  0
0.82  0
0.825  0
0.83  0
0.835  0
0.84  0
0.845  0
0.85  0
0.855  0
0.86  0
0.865  0
0.87  0
0.875  0
0.88  0
0.885  0
0.89  0
0.895  0
0.9  0
0.905  0
0.91  0
0.915  0
0.92  0
0.925  0
0.93  0
0.935  0
0.94  0
0.945  0
0.95  0
0.955  0
0.96  0
0.965  0
0.97  0
0.975  0
0.98  0
0.985  0
0.99  0
0.995  0
1  0

ZONE
T = " timestep_100" 
StrandID = 100
SOLUTIONTIME = 100
0  0.00022263
0.005  -0.00022263
0.01  0.00022263
0.015  -0.00022263
0.02  0.00022263
0.025  -0.00022263
0.03  0.00022263
0.035  -0.00022263
0.04  0.00022263
0.045  -0.00022263
0.05  0.00022263
0.055  -0.00022263
0.06  0.00022263
0.065  -0.00022263
0.07  0.00022263
0.075  -0.00022263
0.08  0.00022263
0.085  -0.00022263
0.09  0.00022263
0.095  -0.00022263
0.1  0.00022263
0.105  -0.00022263
0.11  0.00022263
0.115  -0.00022263
0.12  0.00022263
0.125  -0.00022263
0.13  0.00022263
0.135  -0.00022263
0.14  0.00022263
0.145  -0.00022263
0.15  0.00022263
0.155  -0.00022263
0.16  0.00022263
0.165  -0.00022263
0.17  0.00022263
0.175  -0.00022263
0.18  0.00022263
0.185  -0.00022263
0.19  0.00022263
0.195  -0.00022263
0.2  0.00022263
0.205  -0.00022263
0.21  0.00022263
0.215  -0.00022263
0.22  0.00022263
0.225  -0.00022263
0.23  0.00022263
0.235  -0.00022263
0.24  0.00022263
0.245  -0.00022263
0.25  0.00022263
0.255  -0.00022263
0.26  -0.000325191
0.265  -0.000509512
0.27  -0.000826963
0.275  -0.00135106
0.28  -0.00218536
0.285  -0.00347332
0.29  -0.00540918
0.295  -0.00824894
0.3  -0.0123191
0.305  -0.0180208
0.31  -0.0258261
0.315  -0.0362635
0.32  -0.0498906
0.325  -0.0672508
0.33  -0.088816
0.335  -0.114918
0.34  -0.14567
0.345  -0.180898
0.35  -0.220072
0.355  -0.262277
0.36  -0.306203
0.365  -0.350194
0.37  -0.39233
0.375  -0.430558
0.38  -0.462856
0.385  -0.487402
0.39  -0.502752
0.395  -0.507976
0.4  -0.502753
0.405  -0.487404
0.41  -0.462857
0.415  -0.430558
0.42  -0.392327
0.425  -0.350188
0.43  -0.306191
0.435  -0.262256
0.44  -0.220035
0.445  -0.180831
0.45  -0.145549
0.455  -0.114698
0.46  -0.0884249
0.465  -0.0665698
0.47  -0.0487308
0.475  -0.0343304
0.48  -0.0226709
0.485  -0.0129752
0.49  -0.00441021
0.495  0.00390453
0.5  0.0129008
0.505  0.0369548
0.51  0.0903703
0.515  0.185634
0.52  0.315354
0.525  0.438732
0.53  0.500228
0.535  0.471736
0.54  0.37302
0.545  0.250976
0.55  0.145684
0.555  0.0738979
0.56  0.0331402
0.565  0.0132627
0.57  0.00476135
0.575  0.00153397
0.58  0.000442018
0.585  0.000113374
0.59  2.57736e-05
0.595  5.17882e-06
0.6  9.1877e-07
0.605  1.43949e-07
0.61  1.99399e-08
0.615  2.44597e-09
0.62  2.66181e-10
0.625  2.57432e-11
0.63  2.21617e-12
0.635  1.7005e-13
0.64  1.16417e-14
0.645  7.11546e-16
0.65  3.88356e-17
0.655  1.89237e-18
0.66  8.22675e-20
0.665  3.18685e-21
0.67  1.09803e-22
0.675  3.35664e-24
0.68  9.07414e-26
0.685  2.16016e-27
0.69  4.50421e-29
0.695  8.17072e-31
0.7  1.27839e-32
0.705  1.70616e-34
0.71  1.91441e-36
0.715  1.77125e-38
0.72  1.31526e-40
0.725  7.53294e-43
0.73  3.12288e-45
0.735  8.33776e-48
0.74  1.07624e-50
0.745  0
0.75  0
0.755  0
0.76  0
0.765  0
0.77  0
0.775  0
0.78  0
0.785  0
0.79  0
0.795  0
0.8  0
0.805  0
0.81  0
0.815  0
0.82  0
0.825  0
0.83  0
0.835  0
0.84  0
0.845  0
0.85  0
0.855  0
0.86  0
0.865  0
0.87  0
0.875  0
0.88  0
0.885  0
0.89  0
0.895  0
0.9  0
0.905  0
0.91  0
0.915  0
0.92  0
0.925  0
0.93  0
0.935  0
0.94  0
0.945  0
0.95  0
0.955  0
0.96  0
0.965  0
0.97  0
0.975  0
0.98  0
0.985  0
0.99  0
0.995  0
1  0

ZONE
T = " timestep_110" 
StrandID = 110
SOLUTIONTIME = 110
0  0.00022263
0.005  -0.00022263
0.01  0.00022263
0.015  -0.00022263
0.02  0.00022263
0.025  -0.00022263
0.03  0.00022263
0.035  -0.00022263
0.04  0.00022263
0.045  -0.00022263
0.05  0.00022263
0.055  -0.00022263
0.06  0.00022263
0.065  -0.00022263
0.07  0.00022263
0.075  -0.00022263
0.08  0.00022263
0.085  -0.00022263
0.09  0.00022263
0.095  -0.00022263
0.1  0.00022263
0.105  -0.00022263
0.11  0.00022263
0.115  -0.00022263
0.12  0.00022263
0.125  -0.00022263
0.13  0.00022263
0.135  -0.00022263
0.14  0.00022263
0.145  -0.00022263
0.15  0.00022263
0.155  -0.00022263
0.16  0.00022263
0.165  -0.00022263
0.17  0.00022263
0.175  -0.00022263
0.18  0.00022263
0.185  -0.00022263
0.19  0.00022263
0.195  -0.00022263
0.2  0.00022263
0.205  -0.00022263
0.21  -0.000325191
0.215  -0.000509512
0.22  -0.000826963
0.225  -0.00135106
0.23  -0.00218536
0.235  -0.00347332
0.24  -0.00540918
0.245  -0.00824894
0.25  -0.0123191
0.255  -0.0180208
0.26  -0.0258261
0.265  -0.0362635
0.27  -0.0498906
0.275  -0.0672508
0.28  -0.088816
0.285  -0.114918
0.29  -0.14567
0.295  -0.180898
0.3  -0.220072
0.305  -0.262277
0.31  -0.306203
0.315  -0.350194
0.32  -0.39233
0.325  -0.430558
0.33  -0.462856
0.335  -0.487402
0.34  -0.502752
0.345  -0.507976
0.35  -0.502753
0.355  -0.487404
0.36  -0.462857
0.365  -0.43056
0.37  -0.39233
0.375  -0.350193
0.38  -0.306201
0.385  -0.262275
0.39  -0.220071
0.395  -0.180898
0.4  -0.145672
0.405  -0.11492
0.41  -0.0888185
0.415  -0.0672521
0.42  -0.04989
0.425  -0.0362608
0.43  -0.025822
0.435  -0.0180169
0.44  -0.0123172
0.445  -0.00825059
0.45  -0.00541477
0.455  -0.00348154
0.46  -0.00219287
0.465  -0.00135272
0.47  -0.000816626
0.475  -0.000480988
0.48  -0.000273166
0.485  -0.00014284
0.49  -5.47324e-05
0.495  1.75797e-05
0.5  9.72018e-05
0.505  0.000469592
0.51  0.00201262
0.515  0.00754582
0.52  0.0243907
0.525  0.0665751
0.53  0.150627
0.535  0.276582
0.54  0.409234
0.545  0.491617
0.55  0.486927
0.555  0.404646
0.56  0.286846
0.565  0.176022
0.57  0.094726
0.575  0.0452158
0.58  0.0193224
0.585  0.00743963
0.59  0.00258867
0.595  0.000814118
0.6  0.000231024
0.605  5.90255e-05
0.61  1.35538e-05
0.615  2.79454e-06
0.62  5.17318e-07
0.625  8.60376e-08
0.63  1.28707e-08
0.635  1.73433e-09
0.64  2.10845e-10
0.645  2.31623e-11
0.65  2.30273e-12
0.655  2.07462e-13
0.66  1.69581e-14
0.665  1.25888e-15
0.67  8.49335e-17
0.675  5.21054e-18
0.68  2.90738e-19
0.685  1.47546e-20
0.69  6.80807e-22
0.695  2.85449e-23
0.7  1.0865e-24
0.705  3.74944e-26
0.71  1.17111e-27
0.715  3.30364e-29
0.72  8.39434e-31
0.725  1.91495e-32
0.73  3.90631e-34
0.735  7.09084e-36
0.74  1.13857e-37
0.745  1.60531e-39
0.75  1.96938e-41
0.755  2.07802e-43
0.76  1.85796e-45
0.765  1.38e-47
0.77  8.28456e-50
0.775  3.86179e-52
0.78  1.31132e-54
0.785  2.88511e-57
0.79  3.08662e-60
0.795  0
0.8  0
0.805  0
0.81  0
0.815  0
0.82  0
0.825  0
0.83  0
0.835  0
0.84  0
0.845  0
0.85  0
0.855  0
0.86  0
0.865  0
0.87  0
0.875  0
0.88  0
0.885  0
0.89  0
0.895  0
0.9  0
0.905  0
0.91  0
0.915  0
0.92  0
0.925  0
0.93  0
0.935  0
0.94  0
0.945  0
0.95  0
0.955  0
0.96  0
0.965  0
0.97  0
0.975  0
0.98  0
0.985  0
0.99  0
0.995  0
1  0

ZONE
T = " timestep_120" 
StrandID = 120
SOLUTIONTIME = 120
0  0.00022263
0.005  -0.00022263
0.01  0.00022263
0.015  -0.00022263
0.02  0.00022263
0.025  -0.00022263
0.03  0.00022263
0.035  -0.00022263
0.04  0.00022263
0.045  -0.00022263
0.05  0.00022263
0.055  -0.00022263
0.06  0.00022263
0.065  -0.00022263
0.07  0.00022263
0.075  -0.00022263
0.08  0.00022263
0.085  -0.00022263
0.09  0.00022263
0.095  -0.00022263
0.1  0.00022263
0.105  -0.00022263
0.11  0.00022263
0.115  -0.00022263
0.12  0.00022263
0.125  -0.00022263
0.13  0.00022263
0.135  -0.00022263
0.14  0.00022263
0.145  -0.00022263
0.15  0.00022263
0.155  -0.00022263
0.16  -0.000325191
0.165  -0.000509512
0.17  -0.000826963
0.175  -0.00135106
0.18  -0.00218536
0.185  -0.00347332
0.19  -0.00540918
0.195  -0.00824894
0.2  -0.0123191
0.205  -0.0180208
0.21  -0.0258261