TITLE = "TEST"
VARIABLES = "X" "Ez " 
ZONE
T = " timestep_10" 
StrandID = 10
SOLUTIONTIME = 10
0  0
0.005  0
0.01  0
0.015  0
0.02  0
0.025  0
0.03  0
0.035  0
0.04  0
0.045  0
0.05  0
0.055  0
0.06  0
0.065  0
0.07  0
0.075  0
0.08  0
0.085  0
0.09  0
0.095  0
0.1  0
0.105  0
0.11  0
0.115  0
0.12  0
0.125  0
0.13  0
0.135  0
0.14  0
0.145  0
0.15  0
0.155  0
0.16  0
0.165  0
0.17  0
0.175  0
0.18  0
0.185  0
0.19  0
0.195  0
0.2  0
0.205  0.00022263
0.21  0.000171039
0.215  0.000511289
0.22  0.00064794
0.225  0.00128251
0.23  0.0018686
0.235  0.00317316
0.24  0.00473389
0.245  0.00742129
0.25  0.0108944
0.255  0.00742129
0.26  0.00473389
0.265  0.00317316
0.27  0.0018686
0.275  0.00128251
0.28  0.00064794
0.285  0.000511289
0.29  0.000171039
0.295  0.00022263
0.3  0
0.305  0
0.31  0
0.315  0
0.32  0
0.325  0
0.33  0
0.335  0
0.34  0
0.345  0
0.35  0
0.355  0
0.36  0
0.365  0
0.37  0
0.375  0
0.38  0
0.385  0
0.39  0
0.395  0
0.4  0
0.405  0
0.41  0
0.415  0
0.42  0
0.425  0
0.43  0
0.435  0
0.44  0
0.445  0
0.45  0
0.455  0
0.46  0
0.465  0
0.47  0
0.475  0
0.48  0
0.485  0
0.49  0
0.495  0
0.5  0
0.505  0
0.51  0
0.515  0
0.52  0
0.525  0
0.53  0
0.535  0
0.54  0
0.545  0
0.55  0
0.555  0
0.56  0
0.565  0
0.57  0
0.575  0
0.58  0
0.585  0
0.59  0
0.595  0
0.6  0
0.605  0
0.61  0
0.615  0
0.62  0
0.625  0
0.63  0
0.635  0
0.64  0
0.645  0
0.65  0
0.655  0
0.66  0
0.665  0
0.67  0
0.675  0
0.68  0
0.685  0
0.69  0
0.695  0
0.7  0
0.705  0
0.71  0
0.715  0
0.72  0
0.725  0
0.73  0
0.735  0
0.74  0
0.745  0
0.75  0
0.755  0
0.76  0
0.765  0
0.77  0
0.775  0
0.78  0
0.785  0
0.79  0
0.795  0
0.8  0
0.805  0
0.81  0
0.815  0
0.82  0
0.825  0
0.83  0
0.835  0
0.84  0
0.845  0
0.85  0
0.855  0
0.86  0
0.865  0
0.87  0
0.875  0
0.88  0
0.885  0
0.89  0
0.895  0
0.9  0
0.905  0
0.91  0
0.915  0
0.92  0
0.925  0
0.93  0
0.935  0
0.94  0
0.945  0
0.95  0
0.955  0
0.96  0
0.965  0
0.97  0
0.975  0
0.98  0
0.985  0
0.99  0
0.995  0
1  0

ZONE
T = " timestep_20" 
StrandID = 20
SOLUTIONTIME = 20
0  0
0.005  0
0.01  0
0.015  0
0.02  0
0.025  0
0.03  0
0.035  0
0.04  0
0.045  0
0.05  0
0.055  0
0.06  0
0.065  0
0.07  0
0.075  0
0.08  0
0.085  0
0.09  0
0.095  0
0.1  0
0.105  0
0.11  0
0.115  0
0.12  0
0.125  0
0.13  0
0.135  0
0.14  0
0.145  0
0.15  0
0.155  0.00022263
0.16  0.000171039
0.165  0.000511289
0.17  0.00064794
0.175  0.00128251
0.18  0.0018686
0.185  0.00317316
0.19  0.00473389
0.195  0.00742129
0.2  0.0108944
0.205  0.0161575
0.21  0.0230064
0.215  0.0325698
0.22  0.0447349
0.225  0.0606643
0.23  0.0801941
0.235  0.104325
0.24  0.132602
0.245  0.165595
0.25  0.202285
0.255  0.165595
0.26  0.132602
0.265  0.104325
0.27  0.0801941
0.275  0.0606643
0.28  0.0447349
0.285  0.0325698
0.29  0.0230064
0.295  0.0161575
0.3  0.0108944
0.305  0.00742129
0.31  0.00473389
0.315  0.00317316
0.32  0.0018686
0.325  0.00128251
0.33  0.00064794
0.335  0.000511289
0.34  0.000171039
0.345  0.00022263
0.35  0
0.355  0
0.36  0
0.365  0
0.37  0
0.375  0
0.38  0
0.385  0
0.39  0
0.395  0
0.4  0
0.405  0
0.41  0
0.415  0
0.42  0
0.425  0
0.43  0
0.435  0
0.44  0
0.445  0
0.45  0
0.455  0
0.46  0
0.465  0
0.47  0
0.475  0
0.48  0
0.485  0
0.49  0
0.495  0
0.5  0
0.505  0
0.51  0
0.515  0
0.52  0
0.525  0
0.53  0
0.535  0
0.54  0
0.545  0
0.55  0
0.555  0
0.56  0
0.565  0
0.57  0
0.575  0
0.58  0
0.585  0
0.59  0
0.595  0
0.6  0
0.605  0
0.61  0
0.615  0
0.62  0
0.625  0
0.63  0
0.635  0
0.64  0
0.645  0
0.65  0
0.655  0
0.66  0
0.665  0
0.67  0
0.675  0
0.68  0
0.685  0
0.69  0
0.695  0
0.7  0
0.705  0
0.71  0
0.715  0
0.72  0
0.725  0
0.73  0
0.735  0
0.74  0
0.745  0
0.75  0
0.755  0
0.76  0
0.765  0
0.77  0
0.775  0
0.78  0
0.785  0
0.79  0
0.795  0
0.8  0
0.805  0
0.81  0
0.815  0
0.82  0
0.825  0
0.83  0
0.835  0
0.84  0
0.845  0
0.85  0
0.855  0
0.86  0
0.865  0
0.87  0
0.875  0
0.88  0
0.885  0
0.89  0
0.895  0
0.9  0
0.905  0
0.91  0
0.915  0
0.92  0
0.925  0
0.93  0
0.935  0
0.94  0
0.945  0
0.95  0
0.955  0
0.96  0
0.965  0
0.97  0
0.975  0
0.98  0
0.985  0
0.99  0
0.995  0
1  0

ZONE
T = " timestep_30" 
StrandID = 30
SOLUTIONTIME = 30
0  0
0.005  0
0.01  0
0.015  0
0.02  0
0.025  0
0.03  0
0.035  0
0.04  0
0.045  0
0.05  0
0.055  0
0.06  0
0.065  0
0.07  0
0.075  0
0.08  0
0.085  0
0.09  0
0.095  0
0.1  0
0.105  0.00022263
0.11  0.000171039
0.115  0.000511289
0.12  0.00064794
0.125  0.00128251
0.13  0.0018686
0.135  0.00317316
0.14  0.00473389
0.145  0.00742129
0.15  0.0108944
0.155  0.0161575
0.16  0.0230064
0.165  0.0325698
0.17  0.0447349
0.175  0.0606643
0.18  0.0801941
0.185  0.104325
0.19  0.132602
0.195  0.165595
0.2  0.202285
0.205  0.242574
0.21  0.284719
0.215  0.327908
0.22  0.369769
0.225  0.409032
0.23  0.443112
0.235  0.470819
0.24  0.48997
0.245  0.50008
0.25  0.49992
0.255  0.50008
0.26  0.48997
0.265  0.470819
0.27  0.443112
0.275  0.409032
0.28  0.369769
0.285  0.327908
0.29  0.284719
0.295  0.242574
0.3  0.202285
0.305  0.165595
0.31  0.132602
0.315  0.104325
0.32  0.0801941
0.325  0.0606643
0.33  0.0447349
0.335  0.0325698
0.34  0.0230064
0.345  0.0161575
0.35  0.0108944
0.355  0.00742129
0.36  0.00473389
0.365  0.00317316
0.37  0.0018686
0.375  0.00128251
0.38  0.00064794
0.385  0.000511289
0.39  0.000171039
0.395  0.00022263
0.4  0
0.405  0
0.41  0
0.415  0
0.42  0
0.425  0
0.43  0
0.435  0
0.44  0
0.445  0
0.45  0
0.455  0
0.46  0
0.465  0
0.47  0
0.475  0
0.48  0
0.485  0
0.49  0
0.495  0
0.5  0
0.505  0
0.51  0
0.515  0
0.52  0
0.525  0
0.53  0
0.535  0
0.54  0
0.545  0
0.55  0
0.555  0
0.56  0
0.565  0
0.57  0
0.575  0
0.58  0
0.585  0
0.59  0
0.595  0
0.6  0
0.605  0
0.61  0
0.615  0
0.62  0
0.625  0
0.63  0
0.635  0
0.64  0
0.645  0
0.65  0
0.655  0
0.66  0
0.665  0
0.67  0
0.675  0
0.68  0
0.685  0
0.69  0
0.695  0
0.7  0
0.705  0
0.71  0
0.715  0
0.72  0
0.725  0
0.73  0
0.735  0
0.74  0
0.745  0
0.75  0
0.755  0
0.76  0
0.765  0
0.77  0
0.775  0
0.78  0
0.785  0
0.79  0
0.795  0
0.8  0
0.805  0
0.81  0
0.815  0
0.82  0
0.825  0
0.83  0
0.835  0
0.84  0
0.845  0
0.85  0
0.855  0
0.86  0
0.865  0
0.87  0
0.875  0
0.88  0
0.885  0
0.89  0
0.895  0
0.9  0
0.905  0
0.91  0
0.915  0
0.92  0
0.925  0
0.93  0
0.935  0
0.94  0
0.945  0
0.95  0
0.955  0
0.96  0
0.965  0
0.97  0
0.975  0
0.98  0
0.985  0
0.99  0
0.995  0
1  0

ZONE
T = " timestep_40" 
StrandID = 40
SOLUTIONTIME = 40
0  0
0.005  0
0.01  0
0.015  0
0.02  0
0.025  0
0.03  0
0.035  0
0.04  0
0.045  0
0.05  0
0.055  0.00022263
0.06  0.000171039
0.065  0.000511289
0.07  0.00064794
0.075  0.00128251
0.08  0.0018686
0.085  0.00317316
0.09  0.00473389
0.095  0.00742129
0.1  0.0108944
0.105  0.0161575
0.11  0.0230064
0.115  0.0325698
0.12  0.0447349
0.125  0.0606643
0.13  0.0801941
0.135  0.104325
0.14  0.132602
0.145  0.165595
0.15  0.202285
0.155  0.242574
0.16  0.284719
0.165  0.327908
0.17  0.369769
0.175  0.409032
0.18  0.443112
0.185  0.470819
0.19  0.48997
0.195  0.50008
0.2  0.49992
0.205  0.49013
0.21  0.47066
0.215  0.443271
0.22  0.408872
0.225  0.369928
0.23  0.327748
0.235  0.284878
0.24  0.242414
0.245  0.202444
0.25  0.165435
0.255  0.202444
0.26  0.242414
0.265  0.284878
0.27  0.327748
0.275  0.369928
0.28  0.408872
0.285  0.443271
0.29  0.47066
0.295  0.49013
0.3  0.49992
0.305  0.50008
0.31  0.48997
0.315  0.470819
0.32  0.443112
0.325  0.409032
0.33  0.369769
0.335  0.327908
0.34  0.284719
0.345  0.242574
0.35  0.202285
0.355  0.165595
0.36  0.132602
0.365  0.104325
0.37  0.0801941
0.375  0.0606643
0.38  0.0447349
0.385  0.0325698
0.39  0.0230064
0.395  0.0161575
0.4  0.0108944
0.405  0.00742129
0.41  0.00473389
0.415  0.00317316
0.42  0.0018686
0.425  0.00128251
0.43  0.00064794
0.435  0.000511289
0.44  0.000171039
0.445  0.00022263
0.45  0
0.455  0
0.46  0
0.465  0
0.47  0
0.475  0
0.48  0
0.485  0
0.49  0
0.495  0
0.5  0
0.505  0
0.51  0
0.515  0
0.52  0
0.525  0
0.53  0
0.535  0
0.54  0
0.545  0
0.55  0
0.555  0
0.56  0
0.565  0
0.57  0
0.575  0
0.58  0
0.585  0
0.59  0
0.595  0
0.6  0
0.605  0
0.61  0
0.615  0
0.62  0
0.625  0
0.63  0
0.635  0
0.64  0
0.645  0
0.65  0
0.655  0
0.66  0
0.665  0
0.67  0
0.675  0
0.68  0
0.685  0
0.69  0
0.695  0
0.7  0
0.705  0
0.71  0
0.715  0
0.72  0
0.725  0
0.73  0
0.735  0
0.74  0
0.745  0
0.75  0
0.755  0
0.76  0
0.765  0
0.77  0
0.775  0
0.78  0
0.785  0
0.79  0
0.795  0
0.8  0
0.805  0
0.81  0
0.815  0
0.82  0
0.825  0
0.83  0
0.835  0
0.84  0
0.845  0
0.85  0
0.855  0
0.86  0
0.865  0
0.87  0
0.875  0
0.88  0
0.885  0
0.89  0
0.895  0
0.9  0
0.905  0
0.91  0
0.915  0
0.92  0
0.925  0
0.93  0
0.935  0
0.94  0
0.945  0
0.95  0
0.955  0
0.96  0
0.965  0
0.97  0
0.975  0
0.98  0
0.985  0
0.99  0
0.995  0
1  0

ZONE
T = " timestep_50" 
StrandID = 50
SOLUTIONTIME = 50
0  0
0.005  0.00022263
0.01  0.000171039
0.015  0.000511289
0.02  0.00064794
0.025  0.00128251
0.03  0.0018686
0.035  0.00317316
0.04  0.00473389
0.045  0.00742129
0.05  0.0108944
0.055  0.0161575
0.06  0.0230064
0.065  0.0325698
0.07  0.0447349
0.075  0.0606643
0.08  0.0801941
0.085  0.104325
0.09  0.132602
0.095  0.165595
0.1  0.202285
0.105  0.242574
0.11  0.284719
0.115  0.327908
0.12  0.369769
0.125  0.409032
0.13  0.443112
0.135  0.470819
0.14  0.48997
0.145  0.50008
0.15  0.49992
0.155  0.49013
0.16  0.47066
0.165  0.443271
0.17  0.408872
0.175  0.369928
0.18  0.327748
0.185  0.284878
0.19  0.242414
0.195  0.202444
0.2  0.165435
0.205  0.132762
0.21  0.104166
0.215  0.0803537
0.22  0.0605048
0.225  0.0448945
0.23  0.0324103
0.235  0.0231659
0.24  0.015998
0.245  0.0110539
0.25  0.00726176
0.255  0.0110539
0.26  0.015998
0.265  0.0231659
0.27  0.0324103
0.275  0.0448945
0.28  0.0605048
0.285  0.0803537
0.29  0.104166
0.295  0.132762
0.3  0.165435
0.305  0.202444
0.31  0.242414
0.315  0.284878
0.32  0.327748
0.325  0.369928
0.33  0.408872
0.335  0.443271
0.34  0.47066
0.345  0.49013
0.35  0.49992
0.355  0.50008
0.36  0.48997
0.365  0.470819
0.37  0.443112
0.375  0.409032
0.38  0.369769
0.385  0.327908
0.39  0.284719
0.395  0.242574
0.4  0.202285
0.405  0.165595
0.41  0.132602
0.415  0.104325
0.42  0.0801941
0.425  0.0606643
0.43  0.0447349
0.435  0.0325698
0.44  0.0230064
0.445  0.0161575
0.45  0.0108944
0.455  0.00742129
0.46  0.00473389
0.465  0.00317316
0.47  0.0018686
0.475  0.00128251
0.48  0.00064794
0.485  0.000511289
0.49  0.000171039
0.495  0.00022263
0.5  0
0.505  0
0.51  0
0.515  0
0.52  0
0.525  0
0.53  0
0.535  0
0.54  0
0.545  0
0.55  0
0.555  0
0.56  0
0.565  0
0.57  0
0.575  0
0.58  0
0.585  0
0.59  0
0.595  0
0.6  0
0.605  0
0.61  0
0.615  0
0.62  0
0.625  0
0.63  0
0.635  0
0.64  0
0.645  0
0.65  0
0.655  0
0.66  0
0.665  0
0.67  0
0.675  0
0.68  0
0.685  0
0.69  0
0.695  0
0.7  0
0.705  0
0.71  0
0.715  0
0.72  0
0.725  0
0.73  0
0.735  0
0.74  0
0.745  0
0.75  0
0.755  0
0.76  0
0.765  0
0.77  0
0.775  0
0.78  0
0.785  0
0.79  0
0.795  0
0.8  0
0.805  0
0.81  0
0.815  0
0.82  0
0.825  0
0.83  0
0.835  0
0.84  0
0.845  0
0.85  0
0.855  0
0.86  0
0.865  0
0.87  0
0.875  0
0.88  0
0.885  0
0.89  0
0.895  0
0.9  0
0.905  0
0.91  0
0.915  0
0.92  0
0.925  0
0.93  0
0.935  0
0.94  0
0.945  0
0.95  0
0.955  0
0.96  0
0.965  0
0.97  0
0.975  0
0.98  0
0.985  0
0.99  0
0.995  0
1  0

ZONE
T = " timestep_60" 
StrandID = 60
SOLUTIONTIME = 60
0  0
0.005  0.00873621
0.01  0.0182725
0.015  0.0293966
0.02  0.0428663
0.025  0.0593818
0.03  0.0795462
0.035  0.103814
0.04  0.132431
0.045  0.165372
0.05  0.202285
0.055  0.242574
0.06  0.284719
0.065  0.327908
0.07  0.369769
0.075  0.409032
0.08  0.443112
0.085  0.470819
0.09  0.48997
0.095  0.50008
0.1  0.49992
0.105  0.49013
0.11  0.47066
0.115  0.443271
0.12  0.408872
0.125  0.369928
0.13  0.327748
0.135  0.284878
0.14  0.242414
0.145  0.202444
0.15  0.165435
0.155  0.132762
0.16  0.104166
0.165  0.0803537
0.17  0.0605048
0.175  0.0448945
0.18  0.0324103
0.185  0.0231659
0.19  0.015998
0.195  0.0110539
0.2  0.00726176
0.205  0.00489342
0.21  0.00301364
0.215  0.00202812
0.22  0.00112299
0.225  0.000807467
0.23  0.000351762
0.235  0.000330566
0.24  6.31033e-05
0.245  0.000159527
0.25  -3.61168e-05
0.255  0.000159527
0.26  6.31033e-05
0.265  0.000330566
0.27  0.000351762
0.275  0.000807467
0.28  0.00112299
0.285  0.00202812
0.29  0.00301364
0.295  0.00489342
0.3  0.00726176
0.305  0.0110539
0.31  0.015998
0.315  0.0231659
0.32  0.0324103
0.325  0.0448945
0.33  0.0605048
0.335  0.0803537
0.34  0.104166
0.345  0.132762
0.35  0.165435
0.355  0.202444
0.36  0.242414
0.365  0.284878
0.37  0.327748
0.375  0.369928
0.38  0.408872
0.385  0.443271
0.39  0.47066
0.395  0.49013
0.4  0.49992
0.405  0.50008
0.41  0.48997
0.415  0.470819
0.42  0.443112
0.425  0.409032
0.43  0.369769
0.435  0.327908
0.44  0.284719
0.445  0.242574
0.45  0.202285
0.455  0.165595
0.46  0.132602
0.465  0.104325
0.47  0.0801941
0.475  0.0606643
0.48  0.0447349
0.485  0.0325698
0.49  0.0230064
0.495  0.0161575
0.5  0.0108944
0.505  0.00742129
0.51  0.00473389
0.515  0.00317316
0.52  0.0018686
0.525  0.00128251
0.53  0.00064794
0.535  0.000511289
0.54  0.000171039
0.545  0.00022263
0.55  0
0.555  0
0.56  0
0.565  0
0.57  0
0.575  0
0.58  0
0.585  0
0.59  0
0.595  0
0.6  0
0.605  0
0.61  0
0.615  0
0.62  0
0.625  0
0.63  0
0.635  0
0.64  0
0.645  0
0.65  0
0.655  0
0.66  0
0.665  0
0.67  0
0.675  0
0.68  0
0.685  0
0.69  0
0.695  0
0.7  0
0.705  0
0.71  0
0.715  0
0.72  0
0.725  0
0.73  0
0.735  0
0.74  0
0.745  0
0.75  0
0.755  0
0.76  0
0.765  0
0.77  0
0.775  0
0.78  0
0.785  0
0.79  0
0.795  0
0.8  0
0.805  0
0.81  0
0.815  0
0.82  0
0.825  0
0.83  0
0.835  0
0.84  0
0.845  0
0.85  0
0.855  0
0.86  0
0.865  0
0.87  0
0.875  0
0.88  0
0.885  0
0.89  0
0.895  0
0.9  0
0.905  0
0.91  0
0.915  0
0.92  0
0.925  0
0.93  0
0.935  0
0.94  0
0.945  0
0.95  0
0.955  0
0.96  0
0.965  0
0.97  0
0.975  0
0.98  0
0.985  0
0.99  0
0.995  0
1  0

ZONE
T = " timestep_70" 
StrandID = 70
SOLUTIONTIME = 70
0  0
0.005  0.0769786
0.01  0.152117
0.015  0.223582
0.02  0.289575
0.025  0.348368
0.03  0.398377
0.035  0.43825
0.04  0.466964
0.045  0.483922
0.05  0.489026
0.055  0.482708
0.06  0.465926
0.065  0.440098
0.07  0.407004
0.075  0.368646
0.08  0.3271
0.085  0.284367
0.09  0.242243
0.095  0.202221
0.1  0.165435
0.105  0.132762
0.11  0.104166
0.115  0.0803537
0.12  0.0605048
0.125  0.0448945
0.13  0.0324103
0.135  0.0231659
0.14  0.015998
0.145  0.0110539
0.15  0.00726176
0.155  0.00489342
0.16  0.00301364
0.165  0.00202812
0.17  0.00112299
0.175  0.000807467
0.18  0.000351762
0.185  0.000330566
0.19  6.31033e-05
0.195  0.000159527
0.2  -3.61168e-05
0.205  0.000103172
0.21  -6.74588e-05
0.215  8.61025e-05
0.22  -7.65623e-05
0.225  8.13475e-05
0.23  -7.89949e-05
0.235  8.01286e-05
0.24  -7.95931e-05
0.245  7.9841e-05
0.25  -7.97285e-05
0.255  7.9841e-05
0.26  -7.95931e-05
0.265  8.01286e-05
0.27  -7.89949e-05
0.275  8.13475e-05
0.28  -7.65623e-05
0.285  8.61025e-05
0.29  -6.74588e-05
0.295  0.000103172
0.3  -3.61168e-05
0.305  0.000159527
0.31  6.31033e-05
0.315  0.000330566
0.32  0.000351762
0.325  0.000807467
0.33  0.00112299
0.335  0.00202812
0.34  0.00301364
0.345  0.00489342
0.35  0.00726176
0.355  0.0110539
0.36  0.015998
0.365  0.0231659
0.37  0.0324103
0.375  0.0448945
0.38  0.0605048
0.385  0.0803537
0.39  0.104166
0.395  0.132762
0.4  0.165435
0.405  0.202444
0.41  0.242414
0.415  0.284878
0.42  0.327748
0.425  0.369928
0.43  0.408872
0.435  0.443271
0.44  0.47066
0.445  0.49013
0.45  0.49992
0.455  0.50008
0.46  0.48997
0.465  0.470819
0.47  0.443112
0.475  0.409032
0.48  0.369769
0.485  0.327908
0.49  0.284719
0.495  0.242574
0.5  0.202285
0.505  0.165595
0.51  0.132602
0.515  0.104325
0.52  0.0801941
0.525  0.0606643
0.53  0.0447349
0.535  0.0325698
0.54  0.0230064
0.545  0.0161575
0.55  0.0108944
0.555  0.00742129
0.56  0.00473389
0.565  0.00317316
0.57  0.0018686
0.575  0.00128251
0.58  0.00064794
0.585  0.000511289
0.59  0.000171039
0.595  0.00022263
0.6  0
0.605  0
0.61  0
0.615  0
0.62  0
0.625  0
0.63  0
0.635  0
0.64  0
0.645  0
0.65  0
0.655  0
0.66  0
0.665  0
0.67  0
0.675  0
0.68  0
0.685  0
0.69  0
0.695  0
0.7  0
0.705  0
0.71  0
0.715  0
0.72  0
0.725  0
0.73  0
0.735  0
0.74  0
0.745  0
0.75  0
0.755  0
0.76  0
0.765  0
0.77  0
0.775  0
0.78  0
0.785  0
0.79  0
0.795  0
0.8  0
0.805  0
0.81  0
0.815  0
0.82  0
0.825  0
0.83  0
0.835  0
0.84  0
0.845  0
0.85  0
0.855  0
0.86  0
0.865  0
0.87  0
0.875  0
0.88  0
0.885  0
0.89  0
0.895  0
0.9  0
0.905  0
0.91  0
0.915  0
0.92  0
0.925  0
0.93  0
0.935  0
0.94  0
0.945  0
0.95  0
0.955  0
0.96  0
0.965  0
0.97  0
0.975  0
0.98  0
0.985  0
0.99  0
0.995  0
1  0

ZONE
T = " timestep_80" 
StrandID = 80
SOLUTIONTIME = 80
0  0
0.005  -0.00995017
0.01  -0.0193102
0.015  -0.027548
0.02  -0.0342394
0.025  -0.0391036
0.03  -0.0420208
0.035  -0.0430291
0.04  -0.0423049
0.045  -0.0401295
0.05  -0.0368491
0.055  -0.032833
0.06  -0.0284365
0.065  -0.0239717
0.07  -0.0196894
0.075  -0.0157698
0.08  -0.0123246
0.085  -0.00940389
0.09  -0.00700843
0.095  -0.00510362
0.1  -0.00363259
0.105  -0.00252787
0.11  -0.00172026
0.115  -0.00114504
0.12  -0.000745611
0.125  -0.000475047
0.13  -0.000296178
0.135  -0.000180723
0.14  -0.000107936
0.145  -6.31033e-05
0.15  -3.61168e-05
0.155  0.000103172
0.16  -6.74588e-05
0.165  8.61025e-05
0.17  -7.65623e-05
0.175  8.13475e-05
0.18  -7.89949e-05
0.185  8.01286e-05
0.19  -7.95931e-05
0.195  7.9841e-05
0.2  -7.97285e-05
0.205  7.97786e-05
0.21  -7.97567e-05
0.215  7.97661e-05
0.22  -7.97622e-05
0.225  7.97638e-05
0.23  -7.97631e-05
0.235  7.97634e-05
0.24  -7.97633e-05
0.245  7.97633e-05
0.25  -7.97633e-05
0.255  7.97633e-05
0.26  -7.97633e-05
0.265  7.97634e-05
0.27  -7.97631e-05
0.275  7.97638e-05
0.28  -7.97622e-05
0.285  7.97661e-05
0.29  -7.97567e-05
0.295  7.97786e-05
0.3  -7.97285e-05
0.305  7.9841e-05
0.31  -7.95931e-05
0.315  8.01286e-05
0.32  -7.89949e-05
0.325  8.13475e-05
0.33  -7.65623e-05
0.335  8.61025e-05
0.34  -6.74588e-05
0.345  0.000103172
0.35  -3.61168e-05
0.355  0.000159527
0.36  6.31033e-05
0.365  0.000330566
0.37  0.000351762
0.375  0.000807467
0.38  0.00112299
0.385  0.00202812
0.39  0.00301364
0.395  0.00489342
0.4  0.00726176
0.405  0.0110539
0.41  0.015998
0.415  0.0231659
0.42  0.0324103
0.425  0.0448945
0.43  0.0605048
0.435  0.0803537
0.44  0.104166
0.445  0.132762
0.45  0.165435
0.455  0.202444
0.46  0.242414
0.465  0.284878
0.47  0.327748
0.475  0.369928
0.48  0.408872
0.485  0.443271
0.49  0.47066
0.495  0.49013
0.5  0.49992
0.505  0.50008
0.51  0.48997
0.515  0.470819
0.52  0.443112
0.525  0.409032
0.53  0.369769
0.535  0.327908
0.54  0.284719
0.545  0.242574
0.55  0.202285
0.555  0.165595
0.56  0.132602
0.565  0.104325
0.57  0.0801941
0.575  0.0606643
0.58  0.0447349
0.585  0.0325698
0.59  0.0230064
0.595  0.0161575
0.6  0.0108944
0.605  0.00742129
0.61  0.00473389
0.615  0.00317316
0.62  0.0018686
0.625  0.00128251
0.63  0.00064794
0.635  0.000511289
0.64  0.000171039
0.645  0.00022263
0.65  0
0.655  0
0.66  0
0.665  0
0.67  0
0.675  0
0.68  0
0.685  0
0.69  0
0.695  0
0.7  0
0.705  0
0.71  0
0.715  0
0.72  0
0.725  0
0.73  0
0.735  0
0.74  0
0.745  0
0.75  0
0.755  0
0.76  0
0.765  0
0.77  0
0.775  0
0.78  0
0.785  0
0.79  0
0.795  0
0.8  0
0.805  0
0.81  0
0.815  0
0.82  0
0.825  0
0.83  0
0.835  0
0.84  0
0.845  0
0.85  0
0.855  0
0.86  0
0.865  0
0.87  0
0.875  0
0.88  0
0.885  0
0.89  0
0.895  0
0.9  0
0.905  0
0.91  0
0.915  0
0.92  0
0.925  0
0.93  0
0.935  0
0.94  0
0.945  0
0.95  0
0.955  0
0.96  0
0.965  0
0.97  0
0.975  0
0.98  0
0.985  0
0.99  0
0.995  0
1  0

ZONE
T = " timestep_90" 
StrandID = 90
SOLUTIONTIME = 90
0  0
0.005  -0.0696822
0.01  -0.138248
0.015  -0.204525
0.02  -0.267243
0.025  -0.325034
0.03  -0.376462
0.035  -0.420105
0.04  -0.454662
0.045  -0.479076
0.05  -0.492658
0.055  -0.495186
0.06  -0.486956
0.065  -0.468791
0.07  -0.441989
0.075  -0.408225
0.08  -0.369417
0.085  -0.327577
0.09  -0.284656
0.095  -0.242414
0.1  -0.202321
0.105  -0.165492
0.11  -0.13267
0.115  -0.104239
0.12  -0.0802707
0.125  -0.0605829
0.13  -0.0448139
0.135  -0.0324897
0.14  -0.023086
0.145  -0.0160777
0.15  -0.0109741
0.155  -0.00734151
0.16  -0.00481365
0.165  -0.0030934
0.17  -0.00194836
0.175  -0.00120275
0.18  -0.000727703
0.185  -0.000431526
0.19  -0.000250802
0.195  -0.000142867
0.2  -7.97633e-05
0.205  7.97633e-05
0.21  -7.97633e-05
0.215  7.97633e-05
0.22  -7.97633e-05
0.225  7.97633e-05
0.23  -7.97633e-05
0.235  7.97633e-05
0.24  -7.97633e-05
0.245  7.97633e-05
0.25  -7.97633e-05
0.255  7.97633e-05
0.26  -7.97633e-05
0.265  7.97633e-05
0.27  -7.97633e-05
0.275  7.97633e-05
0.28  -7.97633e-05
0.285  7.97633e-05
0.29  -7.97633e-05
0.295  7.97633e-05
0.3  -7.97633e-05
0.305  7.97633e-05
0.31  -7.97633e-05
0.315  7.97634e-05
0.32  -7.97631e-05
0.325  7.97638e-05
0.33  -7.97622e-05
0.335  7.97661e-05
0.34  -7.97567e-05
0.345  7.97786e-05
0.35  -7.97285e-05
0.355  7.9841e-05
0.36  -7.95931e-05
0.365  8.01286e-05
0.37  -7.89949e-05
0.375  8.13475e-05
0.38  -7.65623e-05
0.385  8.61025e-05
0.39  -6.74588e-05
0.395  0.000103172
0.4  -3.61168e-05
0.405  0.000159527
0.41  6.31033e-05
0.415  0.000330566
0.42  0.000351762
0.425  0.000807467
0.43  0.00112299
0.435  0.00202812
0.44  0.00301364
0.445  0.00489342
0.45  0.00726176
0.455  0.0110539
0.46  0.015998
0.465  0.0231659
0.47  0.0324103
0.475  0.0448945
0.48  0.0605048
0.485  0.0803537
0.49  0.104166
0.495  0.132762
0.5  0.165435
0.505  0.202444
0.51  0.242414
0.515  0.284878
0.52  0.327748
0.525  0.369928
0.53  0.408872
0.535  0.443271
0.54  0.47066
0.545  0.49013
0.55  0.49992
0.555  0.50008
0.56  0.48997
0.565  0.470819
0.57  0.443112
0.575  0.409032
0.58  0.369769
0.585  0.327908
0.59  0.284719
0.595  0.242574
0.6  0.202285
0.605  0.165595
0.61  0.132602
0.615  0.104325
0.62  0.0801941
0.625  0.0606643
0.63  0.0447349
0.635  0.0325698
0.64  0.0230064
0.645  0.0161575
0.65  0.0108944
0.655  0.00742129
0.66  0.00473389
0.665  0.00317316
0.67  0.0018686
0.675  0.00128251
0.68  0.00064794
0.685  0.000511289
0.69  0.000171039
0.695  0.00022263
0.7  0
0.705  0
0.71  0
0.715  0
0.72  0
0.725  0
0.73  0
0.735  0
0.74  0
0.745  0
0.75  0
0.755  0
0.76  0
0.765  0
0.77  0
0.775  0
0.78  0
0.785  0
0.79  0
0.795  0
0.8  0
0.805  0
0.81  0
0.815  0
0.82  0
0.825  0
0.83  0
0.835  0
0.84  0
0.845  0
0.85  0
0.855  0
0.86  0
0.865  0
0.87  0
0.875  0
0.88  0
0.885  0
0.89  0
0.895  0
0.9  0
0.905  0
0.91  0
0.915  0
0.92  0
0.925  0
0.93  0
0.935  0
0.94  0
0.945  0
0.95  0
0.955  0
0.96  0
0.965  0
0.97  0
0.975  0
0.98  0
0.985  0
0.99  0
0.995  0
1  0

ZONE
T = " timestep_100" 
StrandID = 100
SOLUTIONTIME = 100
0  0
0.005  -0.00616046
0.01  -0.0129843
0.015  -0.0211378
0.02  -0.0312873
0.025  -0.044087
0.03  -0.060153
0.035  -0.0800231
0.04  -0.104103
0.045  -0.132602
0.05  -0.165472
0.055  -0.202341
0.06  -0.242481
0.065  -0.284792
0.07  -0.327825
0.075  -0.369847
0.08  -0.408951
0.085  -0.443191
0.09  -0.470739
0.095  -0.49005
0.1  -0.5
0.105  -0.5
0.11  -0.49005
0.115  -0.47074
0.12  -0.443192
0.125  -0.408952
0.13  -0.369849
0.135  -0.327828
0.14  -0.284799
0.145  -0.242494
0.15  -0.202364
0.155  -0.165515
0.16  -0.132682
0.165  -0.104246
0.17  -0.0802739
0.175  -0.0605845
0.18  -0.0448147
0.185  -0.03249
0.19  -0.0230862
0.195  -0.0160777
0.2  -0.0109741
0.205  -0.00734152
0.21  -0.00481365
0.215  -0.0030934
0.22  -0.00194836
0.225  -0.00120275
0.23  -0.000727704
0.235  -0.000431526
0.24  -0.000250802
0.245  -0.000142867
0.25  -7.97633e-05
0.255  7.97633e-05
0.26  -7.97633e-05
0.265  7.97633e-05
0.27  -7.97633e-05
0.275  7.97633e-05
0.28  -7.97633e-05
0.285  7.97633e-05
0.29  -7.97633e-05
0.295  7.97633e-05
0.3  -7.97633e-05
0.305  7.97633e-05
0.31  -7.97633e-05
0.315  7.97633e-05
0.32  -7.97633e-05
0.325  7.97633e-05
0.33  -7.97633e-05
0.335  7.97633e-05
0.34  -7.97633e-05
0.345  7.97633e-05
0.35  -7.97633e-05
0.355  7.97633e-05
0.36  -7.97633e-05
0.365  7.97634e-05
0.37  -7.97631e-05
0.375  7.97638e-05
0.38  -7.97622e-05
0.385  7.97661e-05
0.39  -7.97567e-05
0.395  7.97786e-05
0.4  -7.97285e-05
0.405  7.9841e-05
0.41  -7.95931e-05
0.415  8.01286e-05
0.42  -7.89949e-05
0.425  8.13475e-05
0.43  -7.65623e-05
0.435  8.61025e-05
0.44  -6.74588e-05
0.445  0.000103172
0.45  -3.61168e-05
0.455  0.000159527
0.46  6.31033e-05
0.465  0.000330566
0.47  0.000351762
0.475  0.000807467
0.48  0.00112299
0.485  0.00202812
0.49  0.00301364
0.495  0.00489342
0.5  0.00726176
0.505  0.0110539
0.51  0.015998
0.515  0.0231659
0.52  0.0324103
0.525  0.0448945
0.53  0.0605048
0.535  0.0803537
0.54  0.104166
0.545  0.132762
0.55  0.165435
0.555  0.202444
0.56  0.242414
0.565  0.284878
0.57  0.327748
0.575  0.369928
0.58  0.408872
0.585  0.443271
0.59  0.47066
0.595  0.49013
0.6  0.49992
0.605  0.50008
0.61  0.48997
0.615  0.470819
0.62  0.443112
0.625  0.409032
0.63  0.369769
0.635  0.327908
0.64  0.284719
0.645  0.242574
0.65  0.202285
0.655  0.165595
0.66  0.132602
0.665  0.104325
0.67  0.0801941
0.675  0.0606643
0.68  0.0447349
0.685  0.0325698
0.69  0.0230064
0.695  0.0161575
0.7  0.0108944
0.705  0.00742129
0.71  0.00473389
0.715  0.00317316
0.72  0.0018686
0.725  0.00128251
0.73  0.00064794
0.735  0.000511289
0.74  0.000171039
0.745  0.00022263
0.75  0
0.755  0
0.76  0
0.765  0
0.77  0
0.775  0
0.78  0
0.785  0
0.79  0
0.795  0
0.8  0
0.805  0
0.81  0
0.815  0
0.82  0
0.825  0
0.83  0
0.835  0
0.84  0
0.845  0
0.85  0
0.855  0
0.86  0
0.865  0
0.87  0
0.875  0
0.88  0
0.885  0
0.89  0
0.895  0
0.9  0
0.905  0
0.91  0
0.915  0
0.92  0
0.925  0
0.93  0
0.935  0
0.94  0
0.945  0
0.95  0
0.955  0
0.96  0
0.965  0
0.97  0
0.975  0
0.98  0
0.985  0
0.99  0
0.995  0
1  0

ZONE
T = " timestep_110" 
StrandID = 110
SOLUTIONTIME = 110
0  0
0.005  -5.6355e-05
0.01  -0.000130562
0.015  -0.000244463
0.02  -0.000428325
0.025  -0.000726119
0.03  -0.00120198
0.035  -0.001948
0.04  -0.00309323
0.045  -0.00481358
0.05  -0.00734149
0.055  -0.0109741
0.06  -0.0160777
0.065  -0.0230862
0.07  -0.03249
0.075  -0.0448147
0.08  -0.0605845
0.085  -0.0802739
0.09  -0.104246
0.095  -0.132682
0.1  -0.165515
0.105  -0.202364
0.11  -0.242494
0.115  -0.284799
0.12  -0.327828
0.125  -0.369849
0.13  -0.408952
0.135  -0.443192
0.14  -0.47074
0.145  -0.49005
0.15  -0.5
0.155  -0.5
0.16  -0.49005
0.165  -0.47074
0.17  -0.443192
0.175  -0.408952
0.18  -0.369849
0.185  -0.327828
0.19  -0.284799
0.195  -0.242494
0.2  -0.202364
0.205  -0.165515
0.21  -0.132682
0.215  -0.104246
0.22  -0.0802739
0.225  -0.0605845
0.23  -0.0448147
0.235  -0.03249
0.24  -0.0230862
0.245  -0.0160777
0.25  -0.0109741
0.255  -0.00734152
0.26  -0.00481365
0.265  -0.0030934
0.27  -0.00194836
0.275  -0.00120275
0.28  -0.000727704
0.285  -0.000431526
0.29  -0.000250802
0.295  -0.000142867
0.3  -7.97633e-05
0.305  7.97633e-05
0.31  -7.97633e-05
0.315  7.97633e-05
0.32  -7.97633e-05
0.325  7.97633e-05
0.33  -7.97633e-05
0.335  7.97633e-05
0.34  -7.97633e-05
0.345  7.97633e-05
0.35  -7.97633e-05
0.355  7.97633e-05
0.36  -7.97633e-05
0.365  7.97633e-05
0.37  -7.97633e-05
0.375  7.97633e-05
0.38  -7.97633e-05
0.385  7.97633e-05
0.39  -7.97633e-05
0.395  7.97633e-05
0.4  -7.97633e-05
0.405  7.97633e-05
0.41  -7.97633e-05
0.415  7.97634e-05
0.42  -7.97631e-05
0.425  7.97638e-05
0.43  -7.97622e-05
0.435  7.97661e-05
0.44  -7.97567e-05
0.445  7.97786e-05
0.45  -7.97285e-05
0.455  7.9841e-05
0.46  -7.95931e-05
0.465  8.01286e-05
0.47  -7.89949e-05
0.475  8.13475e-05
0.48  -7.65623e-05
0.485  8.61025e-05
0.49  -6.74588e-05
0.495  0.000103172
0.5  -3.61168e-05
0.505  0.000159527
0.51  6.31033e-05
0.515  0.000330566
0.52  0.000351762
0.525  0.000807467
0.53  0.00112299
0.535  0.00202812
0.54  0.00301364
0.545  0.00489342
0.55  0.00726176
0.555  0.0110539
0.56  0.015998
0.565  0.0231659
0.57  0.0324103
0.575  0.0448945
0.58  0.0605048
0.585  0.0803537
0.59  0.104166
0.595  0.132762
0.6  0.165435
0.605  0.202444
0.61  0.242414
0.615  0.284878
0.62  0.327748
0.625  0.369928
0.63  0.408872
0.635  0.443271
0.64  0.47066
0.645  0.49013
0.65  0.49992
0.655  0.50008
0.66  0.48997
0.665  0.470819
0.67  0.443112
0.675  0.409032
0.68  0.369769
0.685  0.327908
0.69  0.284719
0.695  0.242574
0.7  0.202285
0.705  0.165595
0.71  0.132602
0.715  0.104325
0.72  0.0801941
0.725  0.0606643
0.73  0.0447349
0.735  0.0325698
0.74  0.0230064
0.745  0.0161575
0.75  0.0108944
0.755  0.00742129
0.76  0.00473389
0.765  0.00317316
0.77  0.0018686
0.775  0.00128251
0.78  0.00064794
0.785  0.000511289
0.79  0.000171039
0.795  0.00022263
0.8  0
0.805  0
0.81  0
0.815  0
0.82  0
0.825  0
0.83  0
0.835  0
0.84  0
0.845  0
0.85  0
0.855  0
0.86  0
0.865  0
0.87  0
0.875  0
0.88  0
0.885  0
0.89  0
0.895  0
0.9  0
0.905  0
0.91  0
0.915  0
0.92  0
0.925  0
0.93  0
0.935  0
0.94  0
0.945  0
0.95  0
0.955  0
0.96  0
0.965  0
0.97  0
0.975  0
0.98  0
0.985  0
0.99  0
0.995  0
1  0

ZONE
T = " timestep_120" 
StrandID = 120
SOLUTIONTIME = 120
0  0
0.005  -6.2473e-08
0.01  -1.63657e-07
0.015  -3.62547e-07
0.02  -7.67271e-07
0.025  -1.5837e-06
0.03  -3.20077e-06
0.035  -6.33914e-06
0.04  -1.23045e-05
0.045  -2.34083e-05
0.05  -4.36465e-05
0.055  -7.97633e-05
0.06  -0.000142867
0.065  -0.000250802
0.07  -0.000431526
0.075  -0.000727704
0.08  -0.00120275
0.085  -0.00194836
0.09  -0.0030934
0.095  -0.00481365
0.1  -0.00734152
0.105  -0.0109741
0.11  -0.0160777
0.115  -0.0230862
0.12  -0.03249
0.125  -0.0448147
0.13  -0.0605845
0.135  -0.0802739
0.14  -0.104246
0.145  -0.132682
0.15  -0.165515
0.155  -0.202364
0.16  -0.242494
0.165  -0.284799
0.17  -0.327828
0.175  -0.369849
0.18  -0.408952
0.185  -0.443192
0.19  -0.47074
0.195  -0.49005
0.2  -0.5
0.205  -0.5
0.21  -0.49005
0.215  -0.47074
0.22  -0.443192
0.225  -0.408952
0.23  -0.369849
0.235  -0.327828
0.24  -0.284799
0.245  -0.242494
0.25  -0.202364
0.255  -0.165515
0.26  -0.132682
0.265  -0.104246
0.27  -0.0802739
0.275  -0.0605845
0.28  -0.0448147
0.285  -0.03249
0.29  -0.0230862
0.295  -0.0160777
0.3  -0.0109741
0.305  -0.00734152
0.31  -0.00481365
0.315  -0.0030934
0.32  -0.00194836
0.325  -0.00120275
0.33  -0.000727704
0.335  -0.000431526
0.34  -0.000250802
0.345  -0.000142867
0.35  -7.97633e-05
0.355  7.97633e-05
0.36  -7.97633e-05
0.365  7.97633e-05
0.37  -7.97633e-05
0.375  7.97633e-05
0.38  -7.97633e-05
0.385  7.97633e-05