TITLE = "Test_FDTD"
FILETYPE = "FULL"
VARIABLES = "X" "Y" "ElectricField" "Conductivity" 
ZONE
T = "CPU number:0"
ZONETYPE = FEQUADRILATERAL
NODES = 1599
ELEMENTS = 1121
DATAPACKING = POINT
VARLOCATION = ([3,4] = NODAL)
-2 0 8.56125  0  
-1.85 0 8.13375  0  
-1.7 0 7.30125  0  
-1.55 0 6.51375  0  
-1.4 0 5.77125  0  
-1.25 0 5.07375  0  
-1.1 0 4.42125  0  
-0.95 0 3.81375  0  
-0.8 0 3.25125  0  
-0.65 0 2.73375  0  
-0.5 0 2.26125  0  
-0.35 0 1.83375  0  
-0.2 0 1.45266  0  
-0.05 0 0.637031  0  
0.1 0 0  0  
0.25 0 0  0  
0.4 0 0  0  
0.55 0 0  0  
0.7 0 0  0  
0.85 0 0  0  
1 0 0  0  
1.15 0 0  0  
1.3 0 0  0  
1.45 0 0  0  
1.6 0 0  0  
1.75 0 0  0  
1.9 0 0  0  
2.05 0 0.637031  0  
2.2 0 1.45266  0  
2.35 0 1.83375  0  
2.5 0 2.26125  0  
2.65 0 2.73375  0  
2.8 0 3.25125  0  
2.95 0 3.81375  0  
3.1 0 4.42125  0  
3.25 0 5.07375  0  
3.4 0 5.77125  0  
3.55 0 6.51375  0  
3.7 0 7.30125  0  
3.85 0 8.13375  0  
4 0 8.56125  0  
-2 0.15 8.58375  0  
-1.85 0.15 8.15625  0  
-1.7 0.15 7.32375  0  
-1.55 0.15 6.53625  0  
-1.4 0.15 5.79375  0  
-1.25 0.15 5.09625  0  
-1.1 0.15 4.44375  0  
-0.95 0.15 3.83625  0  
-0.8 0.15 3.27375  0  
-0.65 0.15 2.75625  0  
-0.5 0.15 2.28375  0  
-0.35 0.15 1.85625  0  
-0.2 0.15 1.47516  0  
-0.05 0.15 0.648281  0  
0.1 0.15 0  0  
0.25 0.15 0  0  
0.4 0.15 0  0  
0.55 0.15 0  0  
0.7 0.15 0  0  
0.85 0.15 0  0  
1 0.15 0  0  
1.15 0.15 0  0  
1.3 0.15 0  0  
1.45 0.15 0  0  
1.6 0.15 0  0  
1.75 0.15 0  0  
1.9 0.15 0  0  
2.05 0.15 0.648281  0  
2.2 0.15 1.47516  0  
2.35 0.15 1.85625  0  
2.5 0.15 2.28375  0  
2.65 0.15 2.75625  0  
2.8 0.15 3.27375  0  
2.95 0.15 3.83625  0  
3.1 0.15 4.44375  0  
3.25 0.15 5.09625  0  
3.4 0.15 5.79375  0  
3.55 0.15 6.53625  0  
3.7 0.15 7.32375  0  
3.85 0.15 8.15625  0  
4 0.15 8.58375  0  
-2 0.3 8.65125  0  
-1.85 0.3 8.22375  0  
-1.7 0.3 7.39125  0  
-1.55 0.3 6.60375  0  
-1.4 0.3 5.86125  0  
-1.25 0.3 5.16375  0  
-1.1 0.3 4.51125  0  
-0.95 0.3 3.90375  0  
-0.8 0.3 3.34125  0  
-0.65 0.3 2.82375  0  
-0.5 0.3 2.35125  0  
-0.35 0.3 1.92375  0  
-0.2 0.3 1.54266  0  
-0.05 0.3 0.756738  0  
0.1 0.3 0.074707  0  
0.25 0.3 0  0  
0.4 0.3 0  0  
0.55 0.3 0  0  
0.7 0.3 0  0  
0.85 0.3 0  0  
1 0.3 0  0  
1.15 0.3 0  0  
1.3 0.3 0  0  
1.45 0.3 0  0  
1.6 0.3 0  0  
1.75 0.3 0  0  
1.9 0.3 0.145898  0  
2.05 0.3 0.827227  0  
2.2 0.3 1.54195  0  
2.35 0.3 1.92375  0  
2.5 0.3 2.35125  0  
2.65 0.3 2.82375  0  
2.8 0.3 3.34125  0  
2.95 0.3 3.90375  0  
3.1 0.3 4.51125  0  
3.25 0.3 5.16375  0  
3.4 0.3 5.86125  0  
3.55 0.3 6.60375  0  
3.7 0.3 7.39125  0  
3.85 0.3 8.22375  0  
4 0.3 8.65125  0  
-2 0.45 8.76375  0  
-1.85 0.45 8.33625  0  
-1.7 0.45 7.50375  0  
-1.55 0.45 6.71625  0  
-1.4 0.45 5.97375  0  
-1.25 0.45 5.27625  0  
-1.1 0.45 4.62375  0  
-0.95 0.45 4.01625  0  
-0.8 0.45 3.45375  0  
-0.65 0.45 2.93625  0  
-0.5 0.45 2.46375  0  
-0.35 0.45 2.03625  0  
-0.2 0.45 1.65445  0  
-0.05 0.45 1.04977  0  
0.1 0.45 0.312188  0  
0.25 0.45 0  0  
0.4 0.45 0  0  
0.55 0.45 0  0  
0.7 0.45 0  0  
0.85 0.45 0  0  
1 0.45 0  0  
1.15 0.45 0  0  
1.3 0.45 0  0  
1.45 0.45 0  0  
1.6 0.45 0  0  
1.75 0.45 0  0  
1.9 0.45 0.383379  0  
2.05 0.45 1.12025  0  
2.2 0.45 1.65375  0  
2.35 0.45 2.03625  0  
2.5 0.45 2.46375  0  
2.65 0.45 2.93625  0  
2.8 0.45 3.45375  0  
2.95 0.45 4.01625  0  
3.1 0.45 4.62375  0  
3.25 0.45 5.27625  0  
3.4 0.45 5.97375  0  
3.55 0.45 6.71625  0  
3.7 0.45 7.50375  0  
3.85 0.45 8.33625  0  
4 0.45 8.76375  0  
-2 0.6 8.92125  0  
-1.85 0.6 8.49375  0  
-1.7 0.6 7.66125  0  
-1.55 0.6 6.87375  0  
-1.4 0.6 6.13125  0  
-1.25 0.6 5.43375  0  
-1.1 0.6 4.78125  0  
-0.95 0.6 4.17375  0  
-0.8 0.6 3.61125  0  
-0.65 0.6 3.09375  0  
-0.5 0.6 2.62125  0  
-0.35 0.6 2.19375  0  
-0.2 0.6 1.81125  0  
-0.05 0.6 1.40537  0  
0.1 0.6 0.667969  0  
0.25 0.6 0.0782227  0  
0.4 0.6 0  0  
0.55 0.6 0  0  
0.7 0.6 0  0  
0.85 0.6 0  0  
1 0.6 0  0  
1.15 0.6 0  0  
1.3 0.6 0  0  
1.45 0.6 0  0  
1.6 0.6 0  0  
1.75 0.6 0.220605  0  
1.9 0.6 0.809648  0  
2.05 0.6 1.40467  0  
2.2 0.6 1.81125  0  
2.35 0.6 2.19375  0  
2.5 0.6 2.62125  0  
2.65 0.6 3.09375  0  
2.8 0.6 3.61125  0  
2.95 0.6 4.17375  0  
3.1 0.6 4.78125  0  
3.25 0.6 5.43375  0  
3.4 0.6 6.13125  0  
3.55 0.6 6.87375  0  
3.7 0.6 7.66125  0  
3.85 0.6 8.49375  0  
4 0.6 8.92125  0  
-2 0.75 9.12375  0  
-1.85 0.75 8.69625  0  
-1.7 0.75 7.86375  0  
-1.55 0.75 7.07625  0  
-1.4 0.75 6.33375  0  
-1.25 0.75 5.63625  0  
-1.1 0.75 4.98375  0  
-0.95 0.75 4.37625  0  
-0.8 0.75 3.81375  0  
-0.65 0.75 3.29625  0  
-0.5 0.75 2.82375  0  
-0.35 0.75 2.39625  0  
-0.2 0.75 2.01375  0  
-0.05 0.75 1.67695  0  
0.1 0.75 1.17932  0  
0.25 0.75 0.497461  0  
0.4 0.75 0.0782227  0  
0.55 0.75 0  0  
0.7 0.75 0  0  
0.85 0.75 0  0  
1 0.75 0  0  
1.15 0.75 0  0  
1.3 0.75 0  0  
1.45 0.75 0  0  
1.6 0.75 0.220605  0  
1.75 0.75 0.781523  0  
1.9 0.75 1.32029  0  
2.05 0.75 1.67625  0  
2.2 0.75 2.01375  0  
2.35 0.75 2.39625  0  
2.5 0.75 2.82375  0  
2.65 0.75 3.29625  0  
2.8 0.75 3.81375  0  
2.95 0.75 4.37625  0  
3.1 0.75 4.98375  0  
3.25 0.75 5.63625  0  
3.4 0.75 6.33375  0  
3.55 0.75 7.07625  0  
3.7 0.75 7.86375  0  
3.85 0.75 8.69625  0  
4 0.75 9.12375  0  
-2 0.9 9.37125  0  
-1.85 0.9 8.94375  0  
-1.7 0.9 8.11125  0  
-1.55 0.9 7.32375  0  
-1.4 0.9 6.58125  0  
-1.25 0.9 5.88375  0  
-1.1 0.9 5.23125  0  
-0.95 0.9 4.62375  0  
-0.8 0.9 4.06125  0  
-0.65 0.9 3.54375  0  
-0.5 0.9 3.07125  0  
-0.35 0.9 2.64375  0  
-0.2 0.9 2.26125  0  
-0.05 0.9 1.92375  0  
0.1 0.9 1.63195  0  
0.25 0.9 1.17932  0  
0.4 0.9 0.667969  0  
0.55 0.9 0.312188  0  
0.7 0.9 0.074707  0  
0.85 0.9 0  0  
1 0.9 0  0  
1.15 0.9 0  0  
1.3 0.9 0.145898  0  
1.45 0.9 0.383379  0  
1.6 0.9 0.809648  0  
1.75 0.9 1.32029  0  
1.9 0.9 1.63125  0  
2.05 0.9 1.92375  0  
2.2 0.9 2.26125  0  
2.35 0.9 2.64375  0  
2.5 0.9 3.07125  0  
2.65 0.9 3.54375  0  
2.8 0.9 4.06125  0  
2.95 0.9 4.62375  0  
3.1 0.9 5.23125  0  
3.25 0.9 5.88375  0  
3.4 0.9 6.58125  0  
3.55 0.9 7.32375  0  
3.7 0.9 8.11125  0  
3.85 0.9 8.94375  0  
4 0.9 9.37125  0  
-2 1.05 9.66375  0  
-1.85 1.05 9.23625  0  
-1.7 1.05 8.40375  0  
-1.55 1.05 7.61625  0  
-1.4 1.05 6.87375  0  
-1.25 1.05 6.17625  0  
-1.1 1.05 5.52375  0  
-0.95 1.05 4.91625  0  
-0.8 1.05 4.35375  0  
-0.65 1.05 3.83625  0  
-0.5 1.05 3.36375  0  
-0.35 1.05 2.93625  0  
-0.2 1.05 2.55375  0  
-0.05 1.05 2.21625  0  
0.1 1.05 1.92375  0  
0.25 1.05 1.67695  0  
0.4 1.05 1.40537  0  
0.55 1.05 1.04977  0  
0.7 1.05 0.756738  0  
0.85 1.05 0.648281  0  
1 1.05 0.637031  0  
1.15 1.05 0.648281  0  
1.3 1.05 0.827227  0  
1.45 1.05 1.12025  0  
1.6 1.05 1.40467  0  
1.75 1.05 1.67625  0  
1.9 1.05 1.92375  0  
2.05 1.05 2.21625  0  
2.2 1.05 2.55375  0  
2.35 1.05 2.93625  0  
2.5 1.05 3.36375  0  
2.65 1.05 3.83625  0  
2.8 1.05 4.35375  0  
2.95 1.05 4.91625  0  
3.1 1.05 5.52375  0  
3.25 1.05 6.17625  0  
3.4 1.05 6.87375  0  
3.55 1.05 7.61625  0  
3.7 1.05 8.40375  0  
3.85 1.05 9.23625  0  
4 1.05 9.66375  0  
-2 1.2 10.0012  0  
-1.85 1.2 9.57375  0  
-1.7 1.2 8.74125  0  
-1.55 1.2 7.95375  0  
-1.4 1.2 7.21125  0  
-1.25 1.2 6.51375  0  
-1.1 1.2 5.86125  0  
-0.95 1.2 5.25375  0  
-0.8 1.2 4.69125  0  
-0.65 1.2 4.17375  0  
-0.5 1.2 3.70125  0  
-0.35 1.2 3.27375  0  
-0.2 1.2 2.89125  0  
-0.05 1.2 2.55375  0  
0.1 1.2 2.26125  0  
0.25 1.2 2.01375  0  
0.4 1.2 1.81125  0  
0.55 1.2 1.65445  0  
0.7 1.2 1.54266  0  
0.85 1.2 1.47516  0  
1 1.2 1.45266  0  
1.15 1.2 1.47516  0  
1.3 1.2 1.54195  0  
1.45 1.2 1.65375  0  
1.6 1.2 1.81125  0  
1.75 1.2 2.01375  0  
1.9 1.2 2.26125  0  
2.05 1.2 2.55375  0  
2.2 1.2 2.89125  0  
2.35 1.2 3.27375  0  
2.5 1.2 3.70125  0  
2.65 1.2 4.17375  0  
2.8 1.2 4.69125  0  
2.95 1.2 5.25375  0  
3.1 1.2 5.86125  0  
3.25 1.2 6.51375  0  
3.4 1.2 7.21125  0  
3.55 1.2 7.95375  0  
3.7 1.2 8.74125  0  
3.85 1.2 9.57375  0  
4 1.2 10.0012  0  
-2 1.35 10.3837  0  
-1.85 1.35 9.95625  0  
-1.7 1.35 9.12375  0  
-1.55 1.35 8.33625  0  
-1.4 1.35 7.59375  0  
-1.25 1.35 6.89625  0  
-1.1 1.35 6.24375  0  
-0.95 1.35 5.63625  0  
-0.8 1.35 5.07375  0  
-0.65 1.35 4.55625  0  
-0.5 1.35 4.08375  0  
-0.35 1.35 3.65625  0  
-0.2 1.35 3.27375  0  
-0.05 1.35 2.93625  0  
0.1 1.35 2.64375  0  
0.25 1.35 2.39625  0  
0.4 1.35 2.19375  0  
0.55 1.35 2.03625  0  
0.7 1.35 1.92375  0  
0.85 1.35 1.85625  0  
1 1.35 1.83375  0  
1.15 1.35 1.85625  0  
1.3 1.35 1.92375  0  
1.45 1.35 2.03625  0  
1.6 1.35 2.19375  0  
1.75 1.35 2.39625  0  
1.9 1.35 2.64375  0  
2.05 1.35 2.93625  0  
2.2 1.35 3.27375  0  
2.35 1.35 3.65625  0  
2.5 1.35 4.08375  0  
2.65 1.35 4.55625  0  
2.8 1.35 5.07375  0  
2.95 1.35 5.63625  0  
3.1 1.35 6.24375  0  
3.25 1.35 6.89625  0  
3.4 1.35 7.59375  0  
3.55 1.35 8.33625  0  
3.7 1.35 9.12375  0  
3.85 1.35 9.95625  0  
4 1.35 10.3837  0  
-2 1.5 10.8113  0  
-1.85 1.5 10.3837  0  
-1.7 1.5 9.55125  0  
-1.55 1.5 8.76375  0  
-1.4 1.5 8.02125  0  
-1.25 1.5 7.32375  0  
-1.1 1.5 6.67125  0  
-0.95 1.5 6.06375  0  
-0.8 1.5 5.50125  0  
-0.65 1.5 4.98375  0  
-0.5 1.5 4.51125  0  
-0.35 1.5 4.08375  0  
-0.2 1.5 3.70125  0  
-0.05 1.5 3.36375  0  
0.1 1.5 3.07125  0  
0.25 1.5 2.82375  0  
0.4 1.5 2.62125  0  
0.55 1.5 2.46375  0  
0.7 1.5 2.35125  0  
0.85 1.5 2.28375  0  
1 1.5 2.26125  0  
1.15 1.5 2.28375  0  
1.3 1.5 2.35125  0  
1.45 1.5 2.46375  0  
1.6 1.5 2.62125  0  
1.75 1.5 2.82375  0  
1.9 1.5 3.07125  0  
2.05 1.5 3.36375  0  
2.2 1.5 3.70125  0  
2.35 1.5 4.08375  0  
2.5 1.5 4.51125  0  
2.65 1.5 4.98375  0  
2.8 1.5 5.50125  0  
2.95 1.5 6.06375  0  
3.1 1.5 6.67125  0  
3.25 1.5 7.32375  0  
3.4 1.5 8.02125  0  
3.55 1.5 8.76375  0  
3.7 1.5 9.55125  0  
3.85 1.5 10.3838  0  
4 1.5 10.8112  0  
-2 1.65 11.2837  0  
-1.85 1.65 10.8562  0  
-1.7 1.65 10.0238  0  
-1.55 1.65 9.23625  0  
-1.4 1.65 8.49375  0  
-1.25 1.65 7.79625  0  
-1.1 1.65 7.14375  0  
-0.95 1.65 6.53625  0  
-0.8 1.65 5.97375  0  
-0.65 1.65 5.45625  0  
-0.5 1.65 4.98375  0  
-0.35 1.65 4.55625  0  
-0.2 1.65 4.17375  0  
-0.05 1.65 3.83625  0  
0.1 1.65 3.54375  0  
0.25 1.65 3.29625  0  
0.4 1.65 3.09375  0  
0.55 1.65 2.93625  0  
0.7 1.65 2.82375  0  
0.85 1.65 2.75625  0  
1 1.65 2.73375  0  
1.15 1.65 2.75625  0  
1.3 1.65 2.82375  0  
1.45 1.65 2.93625  0  
1.6 1.65 3.09375  0  
1.75 1.65 3.29625  0  
1.9 1.65 3.54375  0  
2.05 1.65 3.83625  0  
2.2 1.65 4.17375  0  
2.35 1.65 4.55625  0  
2.5 1.65 4.98375  0  
2.65 1.65 5.45625  0  
2.8 1.65 5.97375  0  
2.95 1.65 6.53625  0  
3.1 1.65 7.14375  0  
3.25 1.65 7.79625  0  
3.4 1.65 8.49375  0  
3.55 1.65 9.23625  0  
3.7 1.65 10.0237  0  
3.85 1.65 10.8562  0  
4 1.65 11.2837  0  
-2 1.8 11.8012  0  
-1.85 1.8 11.3737  0  
-1.7 1.8 10.5412  0  
-1.55 1.8 9.75375  0  
-1.4 1.8 9.01125  0  
-1.25 1.8 8.31375  0  
-1.1 1.8 7.66125  0  
-0.95 1.8 7.05375  0  
-0.8 1.8 6.49125  0  
-0.65 1.8 5.97375  0  
-0.5 1.8 5.50125  0  
-0.35 1.8 5.07375  0  
-0.2 1.8 4.69125  0  
-0.05 1.8 4.35375  0  
0.1 1.8 4.06125  0  
0.25 1.8 3.81375  0  
0.4 1.8 3.61125  0  
0.55 1.8 3.45375  0  
0.7 1.8 3.34125  0  
0.85 1.8 3.27375  0  
1 1.8 3.25125  0  
1.15 1.8 3.27375  0  
1.3 1.8 3.34125  0  
1.45 1.8 3.45375  0  
1.6 1.8 3.61125  0  
1.75 1.8 3.81375  0  
1.9 1.8 4.06125  0  
2.05 1.8 4.35375  0  
2.2 1.8 4.69125  0  
2.35 1.8 5.07375  0  
2.5 1.8 5.50125  0  
2.65 1.8 5.97375  0  
2.8 1.8 6.49125  0  
2.95 1.8 7.05375  0  
3.1 1.8 7.66125  0  
3.25 1.8 8.31375  0  
3.4 1.8 9.01125  0  
3.55 1.8 9.75375  0  
3.7 1.8 10.5412  0  
3.85 1.8 11.3738  0  
4 1.8 11.8012  0  
-2 1.95 12.3637  0  
-1.85 1.95 11.9363  0  
-1.7 1.95 11.1038  0  
-1.55 1.95 10.3163  0  
-1.4 1.95 9.57375  0  
-1.25 1.95 8.87625  0  
-1.1 1.95 8.22375  0  
-0.95 1.95 7.61625  0  
-0.8 1.95 7.05375  0  
-0.65 1.95 6.53625  0  
-0.5 1.95 6.06375  0  
-0.35 1.95 5.63625  0  
-0.2 1.95 5.25375  0  
-0.05 1.95 4.91625  0  
0.1 1.95 4.62375  0  
0.25 1.95 4.37625  0  
0.4 1.95 4.17375  0  
0.55 1.95 4.01625  0  
0.7 1.95 3.90375  0  
0.85 1.95 3.83625  0  
1 1.95 3.81375  0  
1.15 1.95 3.83625  0  
1.3 1.95 3.90375  0  
1.45 1.95 4.01625  0  
1.6 1.95 4.17375  0  
1.75 1.95 4.37625  0  
1.9 1.95 4.62375  0  
2.05 1.95 4.91625  0  
2.2 1.95 5.25375  0  
2.35 1.95 5.63625  0  
2.5 1.95 6.06375  0  
2.65 1.95 6.53625  0  
2.8 1.95 7.05375  0  
2.95 1.95 7.61625  0  
3.1 1.95 8.22375  0  
3.25 1.95 8.87625  0  
3.4 1.95 9.57375  0  
3.55 1.95 10.3163  0  
3.7 1.95 11.1037  0  
3.85 1.95 11.9362  0  
4 1.95 12.3637  0  
-2 2.1 12.9713  0  
-1.85 2.1 12.5437  0  
-1.7 2.1 11.7112  0  
-1.55 2.1 10.9238  0  
-1.4 2.1 10.1813  0  
-1.25 2.1 9.48375  0  
-1.1 2.1 8.83125  0  
-0.95 2.1 8.22375  0  
-0.8 2.1 7.66125  0  
-0.65 2.1 7.14375  0  
-0.5 2.1 6.67125  0  
-0.35 2.1 6.24375  0  
-0.2 2.1 5.86125  0  
-0.05 2.1 5.52375  0  
0.1 2.1 5.23125  0  
0.25 2.1 4.98375  0  
0.4 2.1 4.78125  0  
0.55 2.1 4.62375  0  
0.7 2.1 4.51125  0  
0.85 2.1 4.44375  0  
1 2.1 4.42125  0  
1.15 2.1 4.44375  0  
1.3 2.1 4.51125  0  
1.45 2.1 4.62375  0  
1.6 2.1 4.78125  0  
1.75 2.1 4.98375  0  
1.9 2.1 5.23125  0  
2.05 2.1 5.52375  0  
2.2 2.1 5.86125  0  
2.35 2.1 6.24375  0  
2.5 2.1 6.67125  0  
2.65 2.1 7.14375  0  
2.8 2.1 7.66125  0  
2.95 2.1 8.22375  0  
3.1 2.1 8.83125  0  
3.25 2.1 9.48375  0  
3.4 2.1 10.1813  0  
3.55 2.1 10.9238  0  
3.7 2.1 11.7112  0  
3.85 2.1 12.5437  0  
4 2.1 12.9712  0  
-2 2.25 13.6237  0  
-1.85 2.25 13.1963  0  
-1.7 2.25 12.3638  0  
-1.55 2.25 11.5762  0  
-1.4 2.25 10.8338  0  
-1.25 2.25 10.1363  0  
-1.1 2.25 9.48375  0  
-0.95 2.25 8.87625  0  
-0.8 2.25 8.31375  0  
-0.65 2.25 7.79625  0  
-0.5 2.25 7.32375  0  
-0.35 2.25 6.89625  0  
-0.2 2.25 6.51375  0  
-0.05 2.25 6.17625  0  
0.1 2.25 5.88375  0  
0.25 2.25 5.63625  0  
0.4 2.25 5.43375  0  
0.55 2.25 5.27625  0  
0.7 2.25 5.16375  0  
0.85 2.25 5.09625  0  
1 2.25 5.07375  0  
1.15 2.25 5.09625  0  
1.3 2.25 5.16375  0  
1.45 2.25 5.27625  0  
1.6 2.25 5.43375  0  
1.75 2.25 5.63625  0  
1.9 2.25 5.88375  0  
2.05 2.25 6.17625  0  
2.2 2.25 6.51375  0  
2.35 2.25 6.89625  0  
2.5 2.25 7.32375  0  
2.65 2.25 7.79625  0  
2.8 2.25 8.31375  0  
2.95 2.25 8.87625  0  
3.1 2.25 9.48375  0  
3.25 2.25 10.1362  0  
3.4 2.25 10.8338  0  
3.55 2.25 11.5762  0  
3.7 2.25 12.3637  0  
3.85 2.25 13.1963  0  
4 2.25 13.6237  0  
-2 2.4 14.3212  0  
-1.85 2.4 13.8938  0  
-1.7 2.4 13.0613  0  
-1.55 2.4 12.2737  0  
-1.4 2.4 11.5312  0  
-1.25 2.4 10.8338  0  
-1.1 2.4 10.1813  0  
-0.95 2.4 9.57375  0  
-0.8 2.4 9.01125  0  
-0.65 2.4 8.49375  0  
-0.5 2.4 8.02125  0  
-0.35 2.4 7.59375  0  
-0.2 2.4 7.21125  0  
-0.05 2.4 6.87375  0  
0.1 2.4 6.58125  0  
0.25 2.4 6.33375  0  
0.4 2.4 6.13125  0  
0.55 2.4 5.97375  0  
0.7 2.4 5.86125  0  
0.85 2.4 5.79375  0  
1 2.4 5.77125  0  
1.15 2.4 5.79375  0  
1.3 2.4 5.86125  0  
1.45 2.4 5.97375  0  
1.6 2.4 6.13125  0  
1.75 2.4 6.33375  0  
1.9 2.4 6.58125  0  
2.05 2.4 6.87375  0  
2.2 2.4 7.21125  0  
2.35 2.4 7.59375  0  
2.5 2.4 8.02125  0  
2.65 2.4 8.49375  0  
2.8 2.4 9.01125  0  
2.95 2.4 9.57375  0  
3.1 2.4 10.1813  0  
3.25 2.4 10.8337  0  
3.4 2.4 11.5312  0  
3.55 2.4 12.2737  0  
3.7 2.4 13.0612  0  
3.85 2.4 13.8938  0  
4 2.4 14.3212  0  
-2 2.55 15.0637  0  
-1.85 2.55 14.6362  0  
-1.7 2.55 13.8037  0  
-1.55 2.55 13.0162  0  
-1.4 2.55 12.2737  0  
-1.25 2.55 11.5762  0  
-1.1 2.55 10.9237  0  
-0.95 2.55 10.3162  0  
-0.8 2.55 9.75375  0  
-0.65 2.55 9.23625  0  
-0.5 2.55 8.76375  0  
-0.35 2.55 8.33625  0  
-0.2 2.55 7.95375  0  
-0.05 2.55 7.61625  0  
0.1 2.55 7.32375  0  
0.25 2.55 7.07625  0  
0.4 2.55 6.87375  0  
0.55 2.55 6.71625  0  
0.7 2.55 6.60375  0  
0.85 2.55 6.53625  0  
1 2.55 6.51375  0  
1.15 2.55 6.53625  0  
1.3 2.55 6.60375  0  
1.45 2.55 6.71625  0  
1.6 2.55 6.87375  0  
1.75 2.55 7.07625  0  
1.9 2.55 7.32375  0  
2.05 2.55 7.61625  0  
2.2 2.55 7.95375  0  
2.35 2.55 8.33625  0  
2.5 2.55 8.76375  0  
2.65 2.55 9.23625  0  
2.8 2.55 9.75375  0  
2.95 2.55 10.3162  0  
3.1 2.55 10.9237  0  
3.25 2.55 11.5762  0  
3.4 2.55 12.2737  0  
3.55 2.55 13.0162  0  
3.7 2.55 13.8037  0  
3.85 2.55 14.6363  0  
4 2.55 15.0637  0  
-2 2.7 15.8512  0  
-1.85 2.7 15.4238  0  
-1.7 2.7 14.5913  0  
-1.55 2.7 13.8037  0  
-1.4 2.7 13.0613  0  
-1.25 2.7 12.3637  0  
-1.1 2.7 11.7112  0  
-0.95 2.7 11.1038  0  
-0.8 2.7 10.5412  0  
-0.65 2.7 10.0238  0  
-0.5 2.7 9.55125  0  
-0.35 2.7 9.12375  0  
-0.2 2.7 8.74125  0  
-0.05 2.7 8.40375  0  
0.1 2.7 8.11125  0  
0.25 2.7 7.86375  0  
0.4 2.7 7.66125  0  
0.55 2.7 7.50375  0  
0.7 2.7 7.39125  0  
0.85 2.7 7.32375  0  
1 2.7 7.30125  0  
1.15 2.7 7.32375  0  
1.3 2.7 7.39125  0  
1.45 2.7 7.50375  0  
1.6 2.7 7.66125  0  
1.75 2.7 7.86375  0  
1.9 2.7 8.11125  0  
2.05 2.7 8.40375  0  
2.2 2.7 8.74125  0  
2.35 2.7 9.12375  0  
2.5 2.7 9.55125  0  
2.65 2.7 10.0237  0  
2.8 2.7 10.5412  0  
2.95 2.7 11.1037  0  
3.1 2.7 11.7112  0  
3.25 2.7 12.3637  0  
3.4 2.7 13.0612  0  
3.55 2.7 13.8037  0  
3.7 2.7 14.5912  0  
3.85 2.7 15.4237  0  
4 2.7 15.8512  0  
-2 2.85 16.6837  0  
-1.85 2.85 16.2562  0  
-1.7 2.85 15.4237  0  
-1.55 2.85 14.6362  0  
-1.4 2.85 13.8937  0  
-1.25 2.85 13.1962  0  
-1.1 2.85 12.5437  0  
-0.95 2.85 11.9362  0  
-0.8 2.85 11.3738  0  
-0.65 2.85 10.8562  0  
-0.5 2.85 10.3837  0  
-0.35 2.85 9.95625  0  
-0.2 2.85 9.57375  0  
-0.05 2.85 9.23625  0  
0.1 2.85 8.94375  0  
0.25 2.85 8.69625  0  
0.4 2.85 8.49375  0  
0.55 2.85 8.33625  0  
0.7 2.85 8.22375  0  
0.85 2.85 8.15625  0  
1 2.85 8.13375  0  
1.15 2.85 8.15625  0  
1.3 2.85 8.22375  0  
1.45 2.85 8.33625  0  
1.6 2.85 8.49375  0  
1.75 2.85 8.69625  0  
1.9 2.85 8.94375  0  
2.05 2.85 9.23625  0  
2.2 2.85 9.57375  0  
2.35 2.85 9.95625  0  
2.5 2.85 10.3837  0  
2.65 2.85 10.8562  0  
2.8 2.85 11.3737  0  
2.95 2.85 11.9362  0  
3.1 2.85 12.5437  0  
3.25 2.85 13.1962  0  
3.4 2.85 13.8937  0  
3.55 2.85 14.6363  0  
3.7 2.85 15.4237  0  
3.85 2.85 16.2562  0  
4 2.85 16.6837  0  
-2 3 17.1112  0  
-1.85 3 16.6837  0  
-1.7 3 15.8513  0  
-1.55 3 15.0638  0  
-1.4 3 14.3213  0  
-1.25 3 13.6237  0  
-1.1 3 12.9713  0  
-0.95 3 12.3638  0  
-0.8 3 11.8012  0  
-0.65 3 11.2838  0  
-0.5 3 10.8113  0  
-0.35 3 10.3837  0  
-0.2 3 10.0012  0  
-0.05 3 9.66375  0  
0.1 3 9.37125  0  
0.25 3 9.12375  0  
0.4 3 8.92125  0  
0.55 3 8.76375  0  
0.7 3 8.65125  0  
0.85 3 8.58375  0  
1 3 8.56125  0  
1.15 3 8.58375  0  
1.3 3 8.65125  0  
1.45 3 8.76375  0  
1.6 3 8.92125  0  
1.75 3 9.12375  0  
1.9 3 9.37125  0  
2.05 3 9.66375  0  
2.2 3 10.0012  0  
2.35 3 10.3838  0  
2.5 3 10.8112  0  
2.65 3 11.2838  0  
2.8 3 11.8012  0  
2.95 3 12.3637  0  
3.1 3 12.9712  0  
3.25 3 13.6237  0  
3.4 3 14.3213  0  
3.55 3 15.0637  0  
3.7 3 15.8512  0  
3.85 3 16.6837  0  
4 3 17.1112  0  
0.025 0.075 0.267715  0  
0.025 0 0.266309  0  
0.1 0.075 0  0  
0.025 0.15 0  0  
-0.05 0.075 0.178477  0  
1.975 0.075 0.267715  0  
1.975 0 0.266309  0  
2.05 0.075 0.862559  0  
1.975 0.15 0.179414  0  
1.9 0.075 0  0  
0.025 0.225 0.411064  0  
0.1 0.225 0  0  
0.025 0.3 0  0  
-0.05 0.225 0.274043  0  
1.975 0.225 0.538945  0  
2.05 0.225 1.15629  0  
1.975 0.3 0.364922  0  
1.9 0.225 0  0  
0.025 0.375 0.719385  0  
0.1 0.375 0.135615  0  
0.025 0.45 0.380039  0  
-0.05 0.375 0.588398  0  
0.175 0.375 0  0  
0.175 0.3 0  0  
0.25 0.375 0  0  
0.175 0.45 0  0  
1.825 0.375 0  0  
1.825 0.3 0  0  
1.9 0.375 0.451714  0  
1.825 0.45 0  0  
1.75 0.375 0  0  
0.175 0.525 0.13667  0  
0.25 0.525 0  0  
0.175 0.6 0  0  
0.1 0.525 0.0911133  0  
1.825 0.525 0.32981  0  
1.9 0.525 0.907954  0  
1.825 0.6 0.353672  0  
1.75 0.525 0  0  
0.175 0.675 0.950317  0  
0.25 0.675 0.416514  0  
0.175 0.75 0.584766  0  
0.1 0.675 0.609023  0  
0.325 0.675 0.0668408  0  
0.325 0.6 0  0  
0.4 0.675 0  0  
0.325 0.75 0  0  
1.675 0.675 0.254004  0  
1.675 0.6 0  0  
1.75 0.675 0.792773  0  
1.675 0.75 0.338672  0  
1.6 0.675 0  0  
0.325 0.825 0.950317  0  
0.4 0.825 0.491968  0  
0.325 0.9 0.592266  0  
0.25 0.825 0.605273  0  
0.475 0.825 0.13667  0  
0.475 0.75 0  0  
0.55 0.825 0  0  
0.475 0.9 0  0  
0.625 0.825 0  0  
0.625 0.75 0  0  
0.7 0.825 0  0  
0.625 0.9 0  0  
1.375 0.825 0  0  
1.375 0.75 0  0  
1.45 0.825 0.0645557  0  
1.375 0.9 0  0  
1.3 0.825 0  0  
1.525 0.825 0.32981  0  
1.525 0.75 0  0  
1.6 0.825 0.809648  0  
1.525 0.9 0.353672  0  
0.625 0.975 0.719385  0  
0.7 0.975 0.558633  0  
0.625 1.05 0.579141  0  
0.55 0.975 0.488848  0  
0.775 0.975 0.411064  0  
0.775 0.9 0  0  
0.85 0.975 0.271934  0  
0.775 1.05 0.183164  0  
0.925 0.975 0.267715  0  
0.925 0.9 0  0  
1 0.975 0.266309  0  
0.925 1.05 0.177539  0  
1.075 0.975 0.267715  0  
1.075 0.9 0  0  
1.15 0.975 0.399814  0  
1.075 1.05 0.179414  0  
1.225 0.975 0.538945  0  
1.225 0.9 0  0  
1.3 0.975 0.747729  0  
1.225 1.05 0.364922  0  
-0.125 0.075 1.27406  0  
-0.125 0 1.26844  0  
-0.125 0.15 1.24781  0  
-0.2 0.075 1.30219  0  
2.125 0.075 1.27406  0  
2.125 0 1.26844  0  
2.2 0.075 1.54031  0  
2.125 0.15 1.30406  0  
-0.125 0.225 1.31906  0  
-0.125 0.3 1.29656  0  
-0.2 0.225 1.34719  0  
1.975 0.375 1.03531  0  
2.05 0.375 1.32656  0  
1.975 0.45 0.7875  0  
0.025 0.525 1.22924  0  
0.025 0.6 1.03172  0  
-0.05 0.525 1.06734  0  
1.975 0.525 1.22924  0  
2.05 0.525 1.46156  0  
1.975 0.6 1.08047  0  
1.825 0.675 1.13924  0  
1.9 0.675 1.33781  0  
1.825 0.75 1.00547  0  
1.675 0.825 1.13924  0  
1.75 0.825 1.30406  0  
1.675 0.9 1.00547  0  
0.475 0.975 1.22924  0  
0.475 1.05 1.05422  0  
0.4 0.975 1.05609  0  
1.375 0.975 1.03531  0  
1.45 0.975 1.15629  0  
1.375 1.05 0.7875  0  
1.525 0.975 1.22924  0  
1.6 0.975 1.36031  0  
1.525 1.05 1.08047  0  
0.775 1.125 1.31906  0  
0.85 1.125 1.29094  0  
0.775 1.2 1.34156  0  
0.7 1.125 1.32469  0  
0.925 1.125 1.27406  0  
1 1.125 1.26844  0  
0.925 1.2 1.30031  0  
1.075 1.125 1.27406  0  
1.15 1.125 1.29094  0  
1.075 1.2 1.30406  0  
-0.0125 0.0375 0.784644  0  
-0.0125 0 0.783589  0  
0.025 0.0375 0.168018  0  
-0.0125 0.075 0.52333  0  
-0.05 0.0375 0.710156  0  
-0.0125 0.1125 0.977596  0  
0.025 0.1125 0.292903  0  
-0.0125 0.15 0.693809  0  
-0.05 0.1125 0.717656  0  
2.0125 0.0375 0.784644  0  
2.0125 0 0.783589  0  
2.05 0.0375 1.14445  0  
2.0125 0.075 0.710625  0  
1.975 0.0375 0.523096  0  
2.0125 0.1125 0.977596  0  
2.05 0.1125 1.1557  0  
2.0125 0.15 0.719062  0  
1.975 0.1125 0.651731  0  
-0.0125 0.1875 1.0611  0  
0.025 0.1875 0.572794  0  
-0.0125 0.225 0.709746  0  
-0.05 0.1875 0.732656  0  
0.0625 0.1875 0.0611829  0  
0.0625 0.15 0  0  
0.1 0.1875 0  0  
0.0625 0.225 0  0  
0.0625 0.2625 0.311759  0  
0.1 0.2625 0  0  
0.0625 0.3 0  0  
0.025 0.2625 0.207839  0  
1.9375 0.1875 0.0611829  0  
1.9375 0.15 0  0  
1.975 0.1875 0.572706  0  
1.9375 0.225 0.0815771  0  
1.9 0.1875 0  0  
1.9375 0.2625 0.311759  0  
1.975 0.2625 0.840157  0  
1.9375 0.3 0.250356  0  
1.9 0.2625 0  0  
0.0625 0.3375 0.637976  0  
0.1 0.3375 0.0823682  0  
0.0625 0.375 0.164736  0  
0.025 0.3375 0.342949  0  
0.0625 0.4125 0.988934  0  
0.1 0.4125 0.508184  0  
0.0625 0.45 0.705059  0  
0.025 0.4125 0.723281  0  
0.1375 0.4125 0.0617102  0  
0.1375 0.375 0  0  
0.175 0.4125 0  0  
0.1375 0.45 0  0  
1.8625 0.4125 0.0617102  0  
1.8625 0.375 0  0  
1.9 0.4125 0.569015  0  
1.8625 0.45 0.0822803  0  
1.825 0.4125 0  0  
0.1375 0.4875 0.569718  0  
0.175 0.4875 0.0820166  0  
0.1375 0.525 0.164033  0  
0.1 0.4875 0.297795  0  
0.2125 0.5625 0.186888  0  
0.2125 0.525 0  0  
0.25 0.5625 0  0  
0.2125 0.6 0  0  
0.175 0.5625 0.124592  0  
0.1375 0.5625 1.0611  0  
0.1375 0.6 0.714434  0  
0.1 0.5625 0.728906  0  
1.8625 0.4875 0.569674  0  
1.9 0.4875 0.987704  0  
1.8625 0.525 0.516445  0  
1.825 0.4875 0.254165  0  
1.7875 0.5625 0.186888  0  
1.7875 0.525 0  0  
1.825 0.5625 0.701224  0  
1.7875 0.6 0.249185  0  
1.75 0.5625 0  0  
0.2125 0.6375 0.907449  0  
0.25 0.6375 0.44098  0  
0.2125 0.675 0.520723  0  
0.175 0.6375 0.532412  0  
0.2875 0.6375 0.0619739  0  
0.2875 0.6 0  0  
0.325 0.6375 0  0  
0.2875 0.675 0  0  
0.3625 0.7125 0.0619739  0  
0.3625 0.675 0  0  
0.4 0.7125 0  0  
0.3625 0.75 0  0  
0.325 0.7125 0.0413159  0  
0.2875 0.7125 0.837257  0  
0.2875 0.75 0.516973  0  
0.25 0.7125 0.52585  0  
1.7125 0.6375 0.0619739  0  
1.7125 0.6 0  0  
1.75 0.6375 0.560841  0  
1.7125 0.675 0.0826318  0  
1.675 0.6375 0  0  
1.6375 0.7125 0.0619739  0  
1.6375 0.675 0  0  
1.675 0.7125 0.556622  0  
1.6375 0.75 0.0826318  0  
1.6 0.7125 0  0  
0.3625 0.7875 0.907449  0  
0.4 0.7875 0.568707  0  
0.3625 0.825 0.524473  0  
0.325 0.7875 0.530537  0  
0.4375 0.7875 0.186888  0  
0.4375 0.75 0  0  
0.475 0.7875 0  0  
0.4375 0.825 0  0  
0.5125 0.8625 0.569718  0  
0.5125 0.825 0.0820166  0  
0.55 0.8625 0.250137  0  
0.5125 0.9 0.251235  0  
0.475 0.8625 0.254194  0  
0.4375 0.8625 1.0611  0  
0.4375 0.9 0.721875  0  
0.4 0.8625 0.725186  0  
0.5875 0.8625 0.0617102  0  
0.5875 0.825 0  0  
0.625 0.8625 0  0  
0.5875 0.9 0  0  
1.4125 0.8625 0.0617102  0  
1.4125 0.825 0  0  
1.45 0.8625 0.250137  0  
1.4125 0.9 0.0822803  0  
1.375 0.8625 0  0  
1.5625 0.7875 0.186888  0  
1.5625 0.75 0  0  
1.6 0.7875 0.688568  0  
1.5625 0.825 0.249185  0  
1.525 0.7875 0  0  
1.4875 0.8625 0.569674  0  
1.4875 0.825 0.0820166  0  
1.525 0.8625 0.901208  0  
1.4875 0.9 0.516445  0  
0.5875 0.9375 0.988934  0  
0.625 0.9375 0.840201  0  
0.5875 0.975 0.718125  0  
0.55 0.9375 0.716748  0  
0.6625 0.9375 0.637976  0  
0.6625 0.9 0.0823682  0  
0.7 0.9375 0.441815  0  
0.6625 0.975 0.33873  0  
0.7375 0.9375 0.311759  0  
0.7375 0.9 0  0  
0.775 0.9375 0.185175  0  
0.7375 0.975 0.165322  0  
0.8125 0.9375 0.0611829  0  
0.8125 0.9 0  0  
0.85 0.9375 0  0  
0.8125 0.975 0  0  
0.8125 1.0125 1.0611  0  
0.85 1.0125 1.04845  0  
0.8125 1.05 0.730313  0  
0.775 1.0125 0.722373  0  
0.9625 1.0125 0.784644  0  
0.9625 0.975 0.168018  0  
1 1.0125 0.783589  0  
0.9625 1.05 0.709688  0  
0.925 1.0125 0.616978  0  
0.8875 1.0125 0.977596  0  
0.8875 0.975 0.292903  0  
0.8875 1.05 0.71625  0  
1.1125 1.0125 0.977596  0  
1.1125 0.975 0.292903  0  
1.15 1.0125 1.0484  0  
1.1125 1.05 0.719063  0  
1.075 1.0125 0.662952  0  
1.0375 1.0125 0.784644  0  
1.0375 0.975 0.168018  0  
1.0375 1.05 0.710625  0  
1.1875 0.9375 0.0611829  0  
1.1875 0.9 0  0  
1.225 0.9375 0.185175  0  
1.1875 0.975 0.0815771  0  
1.15 0.9375 0  0  
1.2625 0.9375 0.311759  0  
1.2625 0.9 0  0  
1.3 0.9375 0.441771  0  
1.2625 0.975 0.250356  0  
2.125 0.225 1.31906  0  
2.2 0.225 1.58531  0  
2.125 0.3 1.35281  0  
-0.125 0.375 1.40906  0  
-0.125 0.45 1.39031  0  
-0.2 0.375 1.43719  0  
0.025 0.675 1.40906  0  
0.025 0.75 1.40156  0  
-0.05 0.675 1.43344  0  
0.175 0.825 1.36406  0  
0.175 0.9 1.36406  0  
0.1 0.825 1.38469  0  
0.325 0.975 1.40906  0  
0.325 1.05 1.41656  0  
0.25 0.975 1.42594  0  
0.625 1.125 1.40906  0  
0.625 1.2 1.42781  0  
0.55 1.125 1.41844  0  
1.225 1.125 1.31906  0  
1.3 1.125 1.38281  0  
1.225 1.2 1.35281  0  
-0.0125 0.2625 1.09477  0  
-0.0125 0.3 1.08539  0  
-0.05 0.2625 1.10742  0  
2.0125 0.1875 1.06102  0  
2.05 0.1875 1.1782  0  
2.0125 0.225 1.07602  0  
2.0125 0.2625 1.09477  0  
2.05 0.2625 1.21195  0  
2.0125 0.3 1.1107  0  
-0.0125 0.3375 1.13977  0  
-0.0125 0.375 1.13133  0  
-0.05 0.3375 1.15242  0  
1.8625 0.5625 1.06102  0  
1.9 0.5625 1.16133  0  
1.8625 0.6 1.07883  0  
0.1375 0.6375 1.15102  0  
0.1375 0.675 1.1482  0  
0.1 0.6375 1.1618  0  
0.2125 0.7125 1.12852  0  
0.2125 0.75 1.12758  0  
0.175 0.7125 1.13836  0  
1.7125 0.7125 1.01602  0  
1.75 0.7125 1.09945  0  
1.7125 0.75 1.03383  0  
0.2875 0.7875 1.12852  0  
0.2875 0.825 1.12945  0  
0.25 0.7875 1.13742  0  
0.3625 0.8625 1.15102  0  
0.3625 0.9 1.15383  0  
0.325 0.8625 1.15898  0  
1.5625 0.8625 1.06102  0  
1.6 0.8625 1.12758  0  
1.5625 0.9 1.07883  0  
0.6625 1.0125 1.13977  0  
0.7 1.0125 1.11586  0  
0.6625 1.05 1.1482  0  
0.625 1.0125 1.14398  0  
0.7375 1.0125 1.09477  0  
0.7375 1.05 1.10414  0  
1.2625 1.0125 1.09477  0  
1.3 1.0125 1.12758  0  
1.2625 1.05 1.1107  0  
1.225 1.0125 1.09148  0  
1.1875 1.0125 1.06102  0  
1.1875 1.05 1.07602  0  
1.9375 0.3375 0.75709  0  
1.975 0.3375 1.10227  0  
1.9375 0.375 0.851836  0  
1.9 0.3375 0.666563  0  
1.9375 0.4125 1.04977  0  
1.975 0.4125 1.15852  0  
1.9375 0.45 1.06664  0  
0.0625 0.4875 1.11727  0  
0.0625 0.525 1.11164  0  
0.025 0.4875 1.12898  0  
1.9375 0.4875 1.11727  0  
1.975 0.4875 1.22602  0  
1.9375 0.525 1.13508  0  
1.7875 0.6375 1.02727  0  
1.825 0.6375 1.11914  0  
1.7875 0.675 1.04508  0  
1.6375 0.7875 1.02727  0  
1.675 0.7875 1.10227  0  
1.6375 0.825 1.04508  0  
0.5125 0.9375 1.11727  0  
0.5125 0.975 1.12289  0  
0.475 0.9375 1.12336  0  
1.3375 0.9375 0.75709  0  
1.3375 0.9 0.161836  0  
1.375 0.9375 1.02023  0  
1.3375 0.975 0.851836  0  
1.4125 0.9375 1.04977  0  
1.45 0.9375 1.08211  0  
1.4125 0.975 1.06664  0  
1.4875 0.9375 1.11727  0  
1.525 0.9375 1.17539  0  
1.4875 0.975 1.13508  0  
0.00625 0.01875 0.50335  0  
0.00625 0 0.503174  0  
0.025 0.01875 0  0  
0.00625 0.0375 0.335566  0  
-0.0125 0.01875 0.671133  0  
0.00625 0.05625 0.504756  0  
0.025 0.05625 0  0  
0.00625 0.075 0.336504  0  
-0.0125 0.05625 0.673008  0  
0.00625 0.09375 0.752476  0  
0.025 0.09375 0.0544238  0  
0.00625 0.1125 0.828193  0  
-0.0125 0.09375 0.840029  0  
0.00625 0.13125 1.00494  0  
0.025 0.13125 0.10959  0  
0.00625 0.15 0.999551  0  
-0.0125 0.13125 1.01115  0  
1.99375 0.01875 0.50335  0  
1.99375 0 0.503174  0  
2.0125 0.01875 1.04479  0  
1.99375 0.0375 0.67125  0  
1.975 0.01875 0.335566  0  
1.99375 0.05625 0.504756  0  
2.0125 0.05625 1.0476  0  
1.99375 0.075 0.673359  0  
1.975 0.05625 0.336504  0  
1.99375 0.09375 0.752476  0  
2.0125 0.09375 1.05322  0  
1.99375 0.1125 0.840615  0  
1.975 0.09375 0.664922  0  
1.99375 0.13125 1.00494  0  
2.0125 0.13125 1.06166  0  
1.99375 0.15 1.01197  0  
1.975 0.13125 0.99873  0  
0.00625 0.16875 1.01619  0  
0.025 0.16875 0.33252  0  
0.00625 0.1875 1.01104  0  
-0.0125 0.16875 1.0224  0  