TITLE = "Test_FDTD"
FILETYPE = "FULL"
VARIABLES = "X" "Y" "test" 
ZONE
T = "CPU number:0"
ZONETYPE = FEQUADRILATERAL
NODES = 2942
ELEMENTS = 1734
DATAPACKING = POINT
VARLOCATION = ([3] = NODAL)
-2 0 0  
-1.8 0 0  
-1.6 0 0  
-1.4 0 0  
-1.2 0 0  
-1 0 0  
-0.8 0 0  
-0.6 0 0  
-0.4 0 0  
-0.2 0 0  
0 0 0  
0.2 0 0  
0.4 0 0  
0.6 0 0  
0.8 0 0  
1 0 0  
1.2 0 0  
1.4 0 0  
1.6 0 0  
1.8 0 0  
2 0 0  
2.2 0 0  
2.4 0 0  
2.6 0 0  
2.8 0 0  
3 0 0  
3.2 0 0  
3.4 0 0  
3.6 0 0  
3.8 0 0  
4 0 0  
-2 0.2 0  
-1.8 0.2 0  
-1.6 0.2 0  
-1.4 0.2 0  
-1.2 0.2 0  
-1 0.2 0  
-0.8 0.2 0  
-0.6 0.2 0  
-0.4 0.2 0  
-0.2 0.2 0  
0 0.2 0  
0.2 0.2 0  
0.4 0.2 0  
0.6 0.2 0  
0.8 0.2 0  
1 0.2 0  
1.2 0.2 0  
1.4 0.2 0  
1.6 0.2 0  
1.8 0.2 0  
2 0.2 0  
2.2 0.2 0  
2.4 0.2 0  
2.6 0.2 0  
2.8 0.2 0  
3 0.2 0  
3.2 0.2 0  
3.4 0.2 0  
3.6 0.2 0  
3.8 0.2 0  
4 0.2 0  
-2 0.4 0  
-1.8 0.4 0  
-1.6 0.4 0  
-1.4 0.4 0  
-1.2 0.4 0  
-1 0.4 0  
-0.8 0.4 0  
-0.6 0.4 0  
-0.4 0.4 0  
-0.2 0.4 0  
0 0.4 0  
0.2 0.4 0  
0.4 0.4 0  
0.6 0.4 0  
0.8 0.4 0  
1 0.4 0  
1.2 0.4 0  
1.4 0.4 0  
1.6 0.4 0  
1.8 0.4 0  
2 0.4 0  
2.2 0.4 0  
2.4 0.4 0  
2.6 0.4 0  
2.8 0.4 0  
3 0.4 0  
3.2 0.4 0  
3.4 0.4 0  
3.6 0.4 0  
3.8 0.4 0  
4 0.4 0  
-2 0.6 0  
-1.8 0.6 0  
-1.6 0.6 0  
-1.4 0.6 0  
-1.2 0.6 0  
-1 0.6 0  
-0.8 0.6 0  
-0.6 0.6 0  
-0.4 0.6 0  
-0.2 0.6 0  
0 0.6 0  
0.2 0.6 0  
0.4 0.6 0  
0.6 0.6 0  
0.8 0.6 0  
1 0.6 0  
1.2 0.6 0  
1.4 0.6 0  
1.6 0.6 0  
1.8 0.6 0  
2 0.6 0  
2.2 0.6 0  
2.4 0.6 0  
2.6 0.6 0  
2.8 0.6 0  
3 0.6 0  
3.2 0.6 0  
3.4 0.6 0  
3.6 0.6 0  
3.8 0.6 0  
4 0.6 0  
-2 0.8 0  
-1.8 0.8 0  
-1.6 0.8 0  
-1.4 0.8 0  
-1.2 0.8 0  
-1 0.8 0  
-0.8 0.8 0  
-0.6 0.8 0  
-0.4 0.8 0  
-0.2 0.8 0  
0 0.8 0  
0.2 0.8 0  
0.4 0.8 0  
0.6 0.8 0  
0.8 0.8 0  
1 0.8 0  
1.2 0.8 0  
1.4 0.8 0  
1.6 0.8 0  
1.8 0.8 0  
2 0.8 0  
2.2 0.8 0  
2.4 0.8 0  
2.6 0.8 0  
2.8 0.8 0  
3 0.8 0  
3.2 0.8 0  
3.4 0.8 0  
3.6 0.8 0  
3.8 0.8 0  
4 0.8 0  
-2 1 0  
-1.8 1 0  
-1.6 1 0  
-1.4 1 0  
-1.2 1 0  
-1 1 0  
-0.8 1 0  
-0.6 1 0  
-0.4 1 0  
-0.2 1 0  
0 1 0  
0.2 1 0  
0.4 1 0  
0.6 1 0  
0.8 1 0  
1 1 0  
1.2 1 0  
1.4 1 0  
1.6 1 0  
1.8 1 0  
2 1 0  
2.2 1 0  
2.4 1 0  
2.6 1 0  
2.8 1 0  
3 1 0  
3.2 1 0  
3.4 1 0  
3.6 1 0  
3.8 1 0  
4 1 0  
-2 1.2 0  
-1.8 1.2 0  
-1.6 1.2 0  
-1.4 1.2 0  
-1.2 1.2 0  
-1 1.2 0  
-0.8 1.2 0  
-0.6 1.2 0  
-0.4 1.2 0  
-0.2 1.2 0  
0 1.2 0  
0.2 1.2 0  
0.4 1.2 0  
0.6 1.2 0  
0.8 1.2 0  
1 1.2 0  
1.2 1.2 0  
1.4 1.2 0  
1.6 1.2 0  
1.8 1.2 0  
2 1.2 0  
2.2 1.2 0  
2.4 1.2 0  
2.6 1.2 0  
2.8 1.2 0  
3 1.2 0  
3.2 1.2 0  
3.4 1.2 0  
3.6 1.2 0  
3.8 1.2 0  
4 1.2 0  
-2 1.4 0  
-1.8 1.4 0  
-1.6 1.4 0  
-1.4 1.4 0  
-1.2 1.4 0  
-1 1.4 0  
-0.8 1.4 0  
-0.6 1.4 0  
-0.4 1.4 0  
-0.2 1.4 0  
0 1.4 0  
0.2 1.4 0  
0.4 1.4 0  
0.6 1.4 0  
0.8 1.4 0  
1 1.4 0  
1.2 1.4 0  
1.4 1.4 0  
1.6 1.4 0  
1.8 1.4 0  
2 1.4 0  
2.2 1.4 0  
2.4 1.4 0  
2.6 1.4 0  
2.8 1.4 0  
3 1.4 0  
3.2 1.4 0  
3.4 1.4 0  
3.6 1.4 0  
3.8 1.4 0  
4 1.4 0  
-2 1.6 0  
-1.8 1.6 0  
-1.6 1.6 0  
-1.4 1.6 0  
-1.2 1.6 0  
-1 1.6 0  
-0.8 1.6 0  
-0.6 1.6 0  
-0.4 1.6 0  
-0.2 1.6 0  
0 1.6 0  
0.2 1.6 0  
0.4 1.6 0  
0.6 1.6 0  
0.8 1.6 0  
1 1.6 0  
1.2 1.6 0  
1.4 1.6 0  
1.6 1.6 0  
1.8 1.6 0  
2 1.6 0  
2.2 1.6 0  
2.4 1.6 0  
2.6 1.6 0  
2.8 1.6 0  
3 1.6 0  
3.2 1.6 0  
3.4 1.6 0  
3.6 1.6 0  
3.8 1.6 0  
4 1.6 0  
-2 1.8 0  
-1.8 1.8 0  
-1.6 1.8 0  
-1.4 1.8 0  
-1.2 1.8 0  
-1 1.8 0  
-0.8 1.8 0  
-0.6 1.8 0  
-0.4 1.8 0  
-0.2 1.8 0  
0 1.8 0  
0.2 1.8 0  
0.4 1.8 0  
0.6 1.8 0  
0.8 1.8 0  
1 1.8 0  
1.2 1.8 0  
1.4 1.8 0  
1.6 1.8 0  
1.8 1.8 0  
2 1.8 0  
2.2 1.8 0  
2.4 1.8 0  
2.6 1.8 0  
2.8 1.8 0  
3 1.8 0  
3.2 1.8 0  
3.4 1.8 0  
3.6 1.8 0  
3.8 1.8 0  
4 1.8 0  
-2 2 0  
-1.8 2 0  
-1.6 2 0  
-1.4 2 0  
-1.2 2 0  
-1 2 0  
-0.8 2 0  
-0.6 2 0  
-0.4 2 0  
-0.2 2 0  
0 2 0  
0.2 2 0  
0.4 2 0  
0.6 2 0  
0.8 2 0  
1 2 0  
1.2 2 0  
1.4 2 0  
1.6 2 0  
1.8 2 0  
2 2 0  
2.2 2 0  
2.4 2 0  
2.6 2 0  
2.8 2 0  
3 2 0  
3.2 2 0  
3.4 2 0  
3.6 2 0  
3.8 2 0  
4 2 0  
-2 2.2 0  
-1.8 2.2 0  
-1.6 2.2 0  
-1.4 2.2 0  
-1.2 2.2 0  
-1 2.2 0  
-0.8 2.2 0  
-0.6 2.2 0  
-0.4 2.2 0  
-0.2 2.2 0  
0 2.2 0  
0.2 2.2 0  
0.4 2.2 0  
0.6 2.2 0  
0.8 2.2 0  
1 2.2 0  
1.2 2.2 0  
1.4 2.2 0  
1.6 2.2 0  
1.8 2.2 0  
2 2.2 0  
2.2 2.2 0  
2.4 2.2 0  
2.6 2.2 0  
2.8 2.2 0  
3 2.2 0  
3.2 2.2 0  
3.4 2.2 0  
3.6 2.2 0  
3.8 2.2 0  
4 2.2 0  
-2 2.4 0  
-1.8 2.4 0  
-1.6 2.4 0  
-1.4 2.4 0  
-1.2 2.4 0  
-1 2.4 0  
-0.8 2.4 0  
-0.6 2.4 0  
-0.4 2.4 0  
-0.2 2.4 0  
0 2.4 0  
0.2 2.4 0  
0.4 2.4 0  
0.6 2.4 0  
0.8 2.4 0  
1 2.4 0  
1.2 2.4 0  
1.4 2.4 0  
1.6 2.4 0  
1.8 2.4 0  
2 2.4 0  
2.2 2.4 0  
2.4 2.4 0  
2.6 2.4 0  
2.8 2.4 0  
3 2.4 0  
3.2 2.4 0  
3.4 2.4 0  
3.6 2.4 0  
3.8 2.4 0  
4 2.4 0  
-2 2.6 0  
-1.8 2.6 0  
-1.6 2.6 0  
-1.4 2.6 0  
-1.2 2.6 0  
-1 2.6 0  
-0.8 2.6 0  
-0.6 2.6 0  
-0.4 2.6 0  
-0.2 2.6 0  
0 2.6 0  
0.2 2.6 0  
0.4 2.6 0  
0.6 2.6 0  
0.8 2.6 0  
1 2.6 0  
1.2 2.6 0  
1.4 2.6 0  
1.6 2.6 0  
1.8 2.6 0  
2 2.6 0  
2.2 2.6 0  
2.4 2.6 0  
2.6 2.6 0  
2.8 2.6 0  
3 2.6 0  
3.2 2.6 0  
3.4 2.6 0  
3.6 2.6 0  
3.8 2.6 0  
4 2.6 0  
-2 2.8 0  
-1.8 2.8 0  
-1.6 2.8 0  
-1.4 2.8 0  
-1.2 2.8 0  
-1 2.8 0  
-0.8 2.8 0  
-0.6 2.8 0  
-0.4 2.8 0  
-0.2 2.8 0  
0 2.8 0  
0.2 2.8 0  
0.4 2.8 0  
0.6 2.8 0  
0.8 2.8 0  
1 2.8 0  
1.2 2.8 0  
1.4 2.8 0  
1.6 2.8 0  
1.8 2.8 0  
2 2.8 0  
2.2 2.8 0  
2.4 2.8 0  
2.6 2.8 0  
2.8 2.8 0  
3 2.8 0  
3.2 2.8 0  
3.4 2.8 0  
3.6 2.8 0  
3.8 2.8 0  
4 2.8 0  
-2 3 0  
-1.8 3 0  
-1.6 3 0  
-1.4 3 0  
-1.2 3 0  
-1 3 0  
-0.8 3 0  
-0.6 3 0  
-0.4 3 0  
-0.2 3 0  
0 3 0  
0.2 3 0  
0.4 3 0  
0.6 3 0  
0.8 3 0  
1 3 0  
1.2 3 0  
1.4 3 0  
1.6 3 0  
1.8 3 0  
2 3 0  
2.2 3 0  
2.4 3 0  
2.6 3 0  
2.8 3 0  
3 3 0  
3.2 3 0  
3.4 3 0  
3.6 3 0  
3.8 3 0  
4 3 0  
-0.1 0.1 0  
-0.1 0 0  
0 0.1 0  
-0.1 0.2 0  
-0.2 0.1 0  
0.1 0.1 0  
0.1 0 0  
0.2 0.1 0  
0.1 0.2 0  
1.9 0.1 0  
1.9 0 0  
2 0.1 0  
1.9 0.2 0  
1.8 0.1 0  
0.1 0.3 0  
0.2 0.3 0  
0.1 0.4 0  
0 0.3 0  
1.9 0.3 0  
2 0.3 0  
1.9 0.4 0  
1.8 0.3 0  
0.1 0.5 0  
0.2 0.5 0  
0.1 0.6 0  
0 0.5 0  
1.7 0.5 0  
1.7 0.4 0  
1.8 0.5 0  
1.7 0.6 0  
1.6 0.5 0  
0.1 0.7 0  
0.2 0.7 0  
0.1 0.8 0  
0 0.7 0  
0.3 0.7 0  
0.3 0.6 0  
0.4 0.7 0  
0.3 0.8 0  
1.5 0.7 0  
1.5 0.6 0  
1.6 0.7 0  
1.5 0.8 0  
1.4 0.7 0  
0.3 0.9 0  
0.4 0.9 0  
0.3 1 0  
0.2 0.9 0  
0.5 0.9 0  
0.5 0.8 0  
0.6 0.9 0  
0.5 1 0  
0.7 0.9 0  
0.7 0.8 0  
0.8 0.9 0  
0.7 1 0  
0.9 0.9 0  
0.9 0.8 0  
1 0.9 0  
0.9 1 0  
1.1 0.9 0  
1.1 0.8 0  
1.2 0.9 0  
1.1 1 0  
1.3 0.9 0  
1.3 0.8 0  
1.4 0.9 0  
1.3 1 0  
0.9 1.1 0  
1 1.1 0  
0.9 1.2 0  
0.8 1.1 0  
2.1 0.1 0  
2.1 0 0  
2.2 0.1 0  
2.1 0.2 0  
-0.1 0.3 0  
-0.1 0.4 0  
-0.2 0.3 0  
2.1 0.3 0  
2.2 0.3 0  
2.1 0.4 0  
-0.1 0.5 0  
-0.1 0.6 0  
-0.2 0.5 0  
1.9 0.5 0  
2 0.5 0  
1.9 0.6 0  
1.7 0.7 0  
1.8 0.7 0  
1.7 0.8 0  
1.5 0.9 0  
1.6 0.9 0  
1.5 1 0  
0.5 1.1 0  
0.6 1.1 0  
0.5 1.2 0  
0.4 1.1 0  
0.7 1.1 0  
0.7 1.2 0  
1.1 1.1 0  
1.2 1.1 0  
1.1 1.2 0  
1.3 1.1 0  
1.4 1.1 0  
1.3 1.2 0  
-0.05 0.05 0  
-0.05 0 0  
0 0.05 0  
-0.05 0.1 0  
-0.1 0.05 0  
0.05 0.05 0  
0.05 0 0  
0.1 0.05 0  
0.05 0.1 0  
0.05 0.15 0  
0.1 0.15 0  
0.05 0.2 0  
0 0.15 0  
1.95 0.05 0  
1.95 0 0  
2 0.05 0  
1.95 0.1 0  
1.9 0.05 0  
1.95 0.15 0  
2 0.15 0  
1.95 0.2 0  
1.9 0.15 0  
0.05 0.25 0  
0.1 0.25 0  
0.05 0.3 0  
0 0.25 0  
0.05 0.35 0  
0.1 0.35 0  
0.05 0.4 0  
0 0.35 0  
1.95 0.25 0  
2 0.25 0  
1.95 0.3 0  
1.9 0.25 0  
1.95 0.35 0  
2 0.35 0  
1.95 0.4 0  
1.9 0.35 0  
0.05 0.45 0  
0.1 0.45 0  
0.05 0.5 0  
0 0.45 0  
0.15 0.45 0  
0.15 0.4 0  
0.2 0.45 0  
0.15 0.5 0  
0.15 0.55 0  
0.2 0.55 0  
0.15 0.6 0  
0.1 0.55 0  
1.75 0.55 0  
1.75 0.5 0  
1.8 0.55 0  
1.75 0.6 0  
1.7 0.55 0  
0.15 0.65 0  
0.2 0.65 0  
0.15 0.7 0  
0.1 0.65 0  
0.25 0.65 0  
0.25 0.6 0  
0.3 0.65 0  
0.25 0.7 0  
0.35 0.75 0  
0.35 0.7 0  
0.4 0.75 0  
0.35 0.8 0  
0.3 0.75 0  
0.25 0.75 0  
0.25 0.8 0  
0.2 0.75 0  
1.55 0.75 0  
1.55 0.7 0  
1.6 0.75 0  
1.55 0.8 0  
1.5 0.75 0  
0.35 0.85 0  
0.4 0.85 0  
0.35 0.9 0  
0.3 0.85 0  
0.45 0.85 0  
0.45 0.8 0  
0.5 0.85 0  
0.45 0.9 0  
0.55 0.85 0  
0.55 0.8 0  
0.6 0.85 0  
0.55 0.9 0  
0.55 0.95 0  
0.6 0.95 0  
0.55 1 0  
0.5 0.95 0  
0.75 0.95 0  
0.75 0.9 0  
0.8 0.95 0  
0.75 1 0  
0.7 0.95 0  
0.65 0.95 0  
0.65 0.9 0  
0.65 1 0  
0.95 0.95 0  
0.95 0.9 0  
1 0.95 0  
0.95 1 0  
0.9 0.95 0  
0.85 0.95 0  
0.85 0.9 0  
0.85 1 0  
1.15 0.95 0  
1.15 0.9 0  
1.2 0.95 0  
1.15 1 0  
1.1 0.95 0  
1.05 0.95 0  
1.05 0.9 0  
1.05 1 0  
1.35 0.95 0  
1.35 0.9 0  
1.4 0.95 0  
1.35 1 0  
1.3 0.95 0  
1.25 0.95 0  
1.25 0.9 0  
1.25 1 0  
0.95 1.05 0  
1 1.05 0  
0.95 1.1 0  
0.9 1.05 0  
2.1 0.5 0  
2.2 0.5 0  
2.1 0.6 0  
1.9 0.7 0  
2 0.7 0  
1.9 0.8 0  
1.7 0.9 0  
1.8 0.9 0  
1.7 1 0  
1.5 1.1 0  
1.6 1.1 0  
1.5 1.2 0  
-0.05 0.15 0  
-0.05 0.2 0  
-0.1 0.15 0  
0.05 0.55 0  
0.05 0.6 0  
0 0.55 0  
0.45 0.95 0  
0.45 1 0  
0.4 0.95 0  
0.85 1.05 0  
0.85 1.1 0  
0.8 1.05 0  
2.05 0.05 0  
2.05 0 0  
2.1 0.05 0  
2.05 0.1 0  
2.05 0.15 0  
2.1 0.15 0  
2.05 0.2 0  
-0.05 0.25 0  
-0.05 0.3 0  
-0.1 0.25 0  
-0.05 0.35 0  
-0.05 0.4 0  
-0.1 0.35 0  
2.05 0.25 0  
2.1 0.25 0  
2.05 0.3 0  
1.85 0.45 0  
1.85 0.4 0  
1.9 0.45 0  
1.85 0.5 0  
1.8 0.45 0  
1.95 0.45 0  
2 0.45 0  
1.95 0.5 0  
1.85 0.55 0  
1.9 0.55 0  
1.85 0.6 0  
1.75 0.65 0  
1.8 0.65 0  
1.75 0.7 0  
1.7 0.65 0  
1.65 0.75 0  
1.65 0.7 0  
1.7 0.75 0  
1.65 0.8 0  
1.45 0.85 0  
1.45 0.8 0  
1.5 0.85 0  
1.45 0.9 0  
1.4 0.85 0  
1.55 0.85 0  
1.6 0.85 0  
1.55 0.9 0  
1.45 0.95 0  
1.5 0.95 0  
1.45 1 0  
0.65 1.05 0  
0.7 1.05 0  
0.65 1.1 0  
0.6 1.05 0  
0.75 1.05 0  
0.75 1.1 0  
1.05 1.05 0  
1.1 1.05 0  
1.05 1.1 0  
1.15 1.05 0  
1.2 1.05 0  
1.15 1.1 0  
1.25 1.05 0  
1.3 1.05 0  
1.25 1.1 0  
-0.025 0.025 0  
-0.025 0 0  
0 0.025 0  
-0.025 0.05 0  
-0.05 0.025 0  
0.025 0.025 0  
0.025 0 0  
0.05 0.025 0  
0.025 0.05 0  
0.025 0.075 0  
0.05 0.075 0  
0.025 0.1 0  
0 0.075 0  
0.025 0.125 0  
0.05 0.125 0  
0.025 0.15 0  
0 0.125 0  
0.025 0.175 0  
0.05 0.175 0  
0.025 0.2 0  
0 0.175 0  
1.975 0.025 0  
1.975 0 0  
2 0.025 0  
1.975 0.05 0  
1.95 0.025 0  
1.975 0.075 0  
2 0.075 0  
1.975 0.1 0  
1.95 0.075 0  
1.975 0.125 0  
2 0.125 0  
1.975 0.15 0  
1.95 0.125 0  
1.975 0.175 0  
2 0.175 0  
1.975 0.2 0  
1.95 0.175 0  
0.025 0.225 0  
0.05 0.225 0  
0.025 0.25 0  
0 0.225 0  
0.025 0.275 0  
0.05 0.275 0  
0.025 0.3 0  
0 0.275 0  
0.025 0.325 0  
0.05 0.325 0  
0.025 0.35 0  
0 0.325 0  
0.075 0.325 0  
0.075 0.3 0  
0.1 0.325 0  
0.075 0.35 0  
0.075 0.375 0  
0.1 0.375 0  
0.075 0.4 0  
0.05 0.375 0  
1.975 0.225 0  
2 0.225 0  
1.975 0.25 0  
1.95 0.225 0  
1.975 0.275 0  
2 0.275 0  
1.975 0.3 0  
1.95 0.275 0  
1.925 0.325 0  
1.925 0.3 0  
1.95 0.325 0  
1.925 0.35 0  
1.9 0.325 0  
1.925 0.375 0  
1.95 0.375 0  
1.925 0.4 0  
1.9 0.375 0  
0.075 0.425 0  
0.1 0.425 0  
0.075 0.45 0  
0.05 0.425 0  
0.125 0.425 0  
0.125 0.4 0  
0.15 0.425 0  
0.125 0.45 0  
0.125 0.475 0  
0.15 0.475 0  
0.125 0.5 0  
0.1 0.475 0  
0.125 0.525 0  
0.15 0.525 0  
0.125 0.55 0  
0.1 0.525 0  
0.175 0.525 0  
0.175 0.5 0  
0.2 0.525 0  
0.175 0.55 0  
0.175 0.575 0  
0.2 0.575 0  
0.175 0.6 0  
0.15 0.575 0  
1.775 0.575 0  
1.775 0.55 0  
1.8 0.575 0  
1.775 0.6 0  
1.75 0.575 0  
0.175 0.625 0  
0.2 0.625 0  
0.175 0.65 0  
0.15 0.625 0  
0.225 0.625 0  
0.225 0.6 0  
0.25 0.625 0  
0.225 0.65 0  
0.275 0.675 0  
0.275 0.65 0  
0.3 0.675 0  
0.275 0.7 0  
0.25 0.675 0  
0.225 0.675 0  
0.225 0.7 0  
0.2 0.675 0  
0.325 0.725 0  
0.325 0.7 0  
0.35 0.725 0  
0.325 0.75 0  
0.3 0.725 0  
0.375 0.775 0  
0.375 0.75 0  
0.4 0.775 0  
0.375 0.8 0  
0.35 0.775 0  
0.325 0.775 0  
0.325 0.8 0  
0.3 0.775 0  
0.275 0.725 0  
0.275 0.75 0  
0.25 0.725 0  
1.575 0.775 0  
1.575 0.75 0  
1.6 0.775 0  
1.575 0.8 0  
1.55 0.775 0  
0.375 0.825 0  
0.4 0.825 0  
0.375 0.85 0  
0.35 0.825 0  
0.425 0.825 0  
0.425 0.8 0  
0.45 0.825 0  
0.425 0.85 0  
0.475 0.825 0  
0.475 0.8 0  
0.5 0.825 0  
0.475 0.85 0  
0.475 0.875 0  
0.5 0.875 0  
0.475 0.9 0  
0.45 0.875 0  
0.575 0.875 0  
0.575 0.85 0  
0.6 0.875 0  
0.575 0.9 0  
0.55 0.875 0  
0.525 0.875 0  
0.525 0.85 0  
0.525 0.9 0  
0.575 0.925 0  
0.6 0.925 0  
0.575 0.95 0  
0.55 0.925 0  
0.775 0.975 0  
0.775 0.95 0  
0.8 0.975 0  
0.775 1 0  
0.75 0.975 0  
0.725 0.975 0  
0.725 0.95 0  
0.725 1 0  
0.7 0.975 0  
0.625 0.925 0  
0.625 0.9 0  
0.65 0.925 0  
0.625 0.95 0  
0.675 0.925 0  
0.675 0.9 0  
0.7 0.925 0  
0.675 0.95 0  
0.675 0.975 0  
0.675 1 0  
0.65 0.975 0  
0.975 0.975 0  
0.975 0.95 0  
1 0.975 0  
0.975 1 0  
0.95 0.975 0  
0.925 0.975 0  
0.925 0.95 0  
0.925 1 0  
0.9 0.975 0  
0.875 0.975 0  
0.875 0.95 0  
0.875 1 0  
0.85 0.975 0  
0.825 0.975 0  
0.825 0.95 0  
0.825 1 0  
1.175 0.975 0  
1.175 0.95 0  
1.2 0.975 0  
1.175 1 0  
1.15 0.975 0  
1.125 0.975 0  
1.125 0.95 0  
1.125 1 0  
1.1 0.975 0  
1.075 0.975 0  
1.075 0.95 0  
1.075 1 0  
1.05 0.975 0  
1.025 0.975 0  
1.025 0.95 0  
1.025 1 0  
1.325 0.925 0  
1.325 0.9 0  
1.35 0.925 0  
1.325 0.95 0  
1.3 0.925 0  
1.375 0.925 0  
1.375 0.9 0  
1.4 0.925 0  
1.375 0.95 0  
1.275 0.975 0  
1.275 0.95 0  
1.3 0.975 0  
1.275 1 0  
1.25 0.975 0  
1.225 0.975 0  
1.225 0.95 0  
1.225 1 0  
0.975 1.025 0  
1 1.025 0  
0.975 1.05 0  
0.95 1.025 0  
2.05 0.35 0  
2.1 0.35 0  
2.05 0.4 0  
1.75 0.75 0  
1.8 0.75 0  
1.75 0.8 0  
1.35 1.05 0  
1.4 1.05 0  
1.35 1.1 0  
-0.025 0.075 0  
-0.025 0.1 0  
-0.05 0.075 0  
0.025 0.375 0  
0.025 0.4 0  
0 0.375 0  
1.975 0.325 0  
2 0.325 0  
1.975 0.35 0  
1.975 0.375 0  
2 0.375 0  
1.975 0.4 0  
0.075 0.475 0  
0.075 0.5 0  
0.05 0.475 0  
0.125 0.575 0  
0.125 0.6 0  
0.1 0.575 0  
0.425 0.875 0  
0.425 0.9 0  
0.4 0.875 0  
0.525 0.925 0  
0.525 0.95 0  
0.5 0.925 0  
0.625 0.975 0  
0.625 1 0  
0.6 0.975 0  
1.375 0.975 0  
1.4 0.975 0  
1.375 1 0  
1.35 0.975 0  
1.325 0.975 0  
1.325 1 0  
0.925 1.025 0  
0.925 1.05 0  
0.9 1.025 0  
1.85 0.65 0  
1.9 0.65 0  
1.85 0.7 0  
1.65 0.85 0  
1.7 0.85 0  
1.65 0.9 0  
-0.025 0.125 0  
-0.025 0.15 0  
-0.05 0.125 0  
-0.025 0.175 0  
-0.025 0.2 0  
-0.05 0.175 0  
0.825 1.025 0  
0.85 1.025 0  
0.825 1.05 0  
0.8 1.025 0  
0.875 1.025 0  
0.875 1.05 0  
2.025 0.025 0  
2.025 0 0  
2.05 0.025 0  
2.025 0.05 0  
2.025 0.075 0  
2.05 0.075 0  
2.025 0.1 0  
2.025 0.125 0  
2.05 0.125 0  
2.025 0.15 0  
2.025 0.175 0  
2.05 0.175 0  
2.025 0.2 0  
-0.025 0.225 0  
-0.025 0.25 0  
-0.05 0.225 0  
1.875 0.425 0  
1.875 0.4 0  
1.9 0.425 0  
1.875 0.45 0  
1.85 0.425 0  
1.875 0.475 0  
1.9 0.475 0  
1.875 0.5 0  
1.85 0.475 0  
1.925 0.425 0  
1.95 0.425 0  
1.925 0.45 0  
1.825 0.525 0  
1.825 0.5 0  
1.85 0.525 0  
1.825 0.55 0  
1.8 0.525 0  
1.825 0.575 0  
1.85 0.575 0  
1.825 0.6 0  
1.775 0.625 0  
1.8 0.625 0  
1.775 0.65 0  
1.75 0.625 0  
1.725 0.675 0  
1.725 0.65 0  
1.75 0.675 0  
1.725 0.7 0  
1.7 0.675 0  
1.675 0.725 0  
1.675 0.7 0  
1.7 0.725 0  
1.675 0.75 0  
1.65 0.725 0  
1.625 0.775 0  
1.625 0.75 0  
1.65 0.775 0  
1.625 0.8 0  
1.475 0.875 0  
1.475 0.85 0  
1.5 0.875 0  
1.475 0.9 0  
1.45 0.875 0  
1.425 0.875 0  
1.425 0.85 0  
1.425 0.9 0  
1.4 0.875 0  
1.525 0.825 0  
1.525 0.8 0  
1.55 0.825 0  
1.525 0.85 0  
1.5 0.825 0  
1.575 0.825 0  
1.6 0.825 0  
1.575 0.85 0  
1.425 0.925 0  
1.45 0.925 0  
1.425 0.95 0  
0.775 1.025 0  
0.775 1.05 0  
0.75 1.025 0  
1.025 1.025 0  
1.05 1.025 0  
1.025 1.05 0  
1.075 1.025 0  
1.1 1.025 0  
1.075 1.05 0  
1.125 1.025 0  
1.15 1.025 0  
1.125 1.05 0  
1.175 1.025 0  
1.2 1.025 0  
1.175 1.05 0  
-0.0125 0.0125 0  
-0.0125 0 0  
0 0.0125 0  
-0.0125 0.025 0  
-0.025 0.0125 0  
0.0125 0.0125 0  
0.0125 0 0  
0.025 0.0125 0  
0.0125 0.025 0  
0.0125 0.0375 0  
0.025 0.0375 0  
0.0125 0.05 0  
0 0.0375 0  
0.0125 0.0625 0  
0.025 0.0625 0  
0.0125 0.075 0  
0 0.0625 0  
0.0125 0.0875 0  
0.025 0.0875 0  
0.0125 0.1 0  
0 0.0875 0  
0.0125 0.1125 0  
0.025 0.1125 0  
0.0125 0.125 0  
0 0.1125 0  
0.0125 0.1375 0  
0.025 0.1375 0  
0.0125 0.15 0  
0 0.1375 0  
0.0125 0.1625 0  
0.025 0.1625 0  
0.0125 0.175 0  
0 0.1625 0  
0.0125 0.1875 0  
0.025 0.1875 0  
0.0125 0.2 0  
0 0.1875 0  
1.9875 0.0125 0  
1.9875 0 0  
2 0.0125 0  
1.9875 0.025 0  
1.975 0.0125 0  
1.9875 0.0375 0  
2 0.0375 0  
1.9875 0.05 0  
1.975 0.0375 0  
1.9875 0.0625 0  
2 0.0625 0  
1.9875 0.075 0  
1.975 0.0625 0  
1.9875 0.0875 0  
2 0.0875 0  
1.9875 0.1 0  
1.975 0.0875 0  
1.9875 0.1125 0  
2 0.1125 0  
1.9875 0.125 0  
1.975 0.1125 0  
1.9875 0.1375 0  
2 0.1375 0  
1.9875 0.15 0  
1.975 0.1375 0  
1.9875 0.1625 0  
2 0.1625 0  
1.9875 0.175 0  
1.975 0.1625 0  
1.9875 0.1875 0  
2 0.1875 0  
1.9875 0.2 0  
1.975 0.1875 0  
0.0125 0.2125 0  
0.025 0.2125 0  
0.0125 0.225 0  
0 0.2125 0  
0.0375 0.2125 0  
0.0375 0.2 0  
0.05 0.2125 0  
0.0375 0.225 0  
0.0375 0.2375 0  
0.05 0.2375 0  
0.0375 0.25 0  
0.025 0.2375 0  
0.0375 0.2625 0  
0.05 0.2625 0  
0.0375 0.275 0  
0.025 0.2625 0  
0.0375 0.2875 0  
0.05 0.2875 0  
0.0375 0.3 0  
0.025 0.2875 0  
0.0375 0.3125 0  
0.05 0.3125 0  
0.0375 0.325 0  
0.025 0.3125 0  
0.0625 0.3125 0  
0.0625 0.3 0  
0.075 0.3125 0  
0.0625 0.325 0  
0.0625 0.3375 0  
0.075 0.3375 0  
0.0625 0.35 0  
0.05 0.3375 0  
0.0625 0.3625 0  
0.075 0.3625 0  
0.0625 0.375 0  
0.05 0.3625 0  
0.0875 0.3875 0  
0.0875 0.375 0  
0.1 0.3875 0  
0.0875 0.4 0  
0.075 0.3875 0  
0.0625 0.3875 0  
0.0625 0.4 0  
0.05 0.3875 0  
1.9625 0.2125 0  
1.9625 0.2 0  
1.975 0.2125 0  
1.9625 0.225 0  
1.95 0.2125 0  
1.9625 0.2375 0  
1.975 0.2375 0  
1.9625 0.25 0  
1.95 0.2375 0  
1.9625 0.2625 0  
1.975 0.2625 0  
1.9625 0.275 0  
1.95 0.2625 0  
1.9625 0.2875 0  
1.975 0.2875 0  
1.9625 0.3 0  
1.95 0.2875 0  
1.9375 0.3125 0  
1.9375 0.3 0  
1.95 0.3125 0  
1.9375 0.325 0  
1.925 0.3125 0  
1.9375 0.3375 0  
1.95 0.3375 0  
1.9375 0.35 0  
1.925 0.3375 0  
1.9375 0.3625 0  
1.95 0.3625 0  
1.9375 0.375 0  
1.925 0.3625 0  
1.9125 0.3875 0  
1.9125 0.375 0  
1.925 0.3875 0  
1.9125 0.4 0  
1.9 0.3875 0  
0.0875 0.4125 0  
0.1 0.4125 0  
0.0875 0.425 0  
0.075 0.4125 0  
0.0875 0.4375 0  
0.1 0.4375 0  
0.0875 0.45 0  
0.075 0.4375 0  
0.1125 0.4375 0  
0.1125 0.425 0  
0.125 0.4375 0  
0.1125 0.45 0  
0.1125 0.4625 0  
0.125 0.4625 0  
0.1125 0.475 0  
0.1 0.4625 0  
0.1375 0.4875 0  
0.1375 0.475 0  
0.15 0.4875 0  
0.1375 0.5 0  
0.125 0.4875 0  
0.1125 0.4875 0  
0.1125 0.5 0  
0.1 0.4875 0  
0.1375 0.5125 0  
0.15 0.5125 0  
0.1375 0.525 0  
0.125 0.5125 0  
0.1375 0.5375 0  
0.15 0.5375 0  
0.1375 0.55 0  
0.125 0.5375 0  
0.1625 0.5375 0  
0.1625 0.525 0  
0.175 0.5375 0  
0.1625 0.55 0  
0.1625 0.5625 0  
0.175 0.5625 0  
0.1625 0.575 0  
0.15 0.5625 0  
0.1875 0.5625 0  
0.1875 0.55 0  
0.2 0.5625 0  
0.1875 0.575 0  
0.1875 0.5875 0  
0.2 0.5875 0  
0.1875 0.6 0  
0.175 0.5875 0  
1.7875 0.5875 0  
1.7875 0.575 0  
1.8 0.5875 0  
1.7875 0.6 0  
1.775 0.5875 0  
0.1875 0.6125 0  
0.2 0.6125 0  
0.1875 0.625 0  
0.175 0.6125 0  
0.2125 0.6125 0  
0.2125 0.6 0  
0.225 0.6125 0  
0.2125 0.625 0  
0.2375 0.6375 0  
0.2375 0.625 0  
0.25 0.6375 0  
0.2375 0.65 0  
0.225 0.6375 0  
0.2125 0.6375 0  
0.2125 0.65 0  
0.2 0.6375 0  
0.2625 0.6625 0  
0.2625 0.65 0  
0.275 0.6625 0  
0.2625 0.675 0  
0.25 0.6625 0  
0.2875 0.6875 0  
0.2875 0.675 0  
0.3 0.6875 0  
0.2875 0.7 0  
0.275 0.6875 0  
0.2625 0.6875 0  
0.2625 0.7 0  
0.25 0.6875 0  
0.2375 0.6625 0  
0.2375 0.675 0  
0.225 0.6625 0  
0.3125 0.7125 0  
0.3125 0.7 0  
0.325 0.7125 0  
0.3125 0.725 0  
0.3 0.7125 0  
0.3375 0.7375 0  
0.3375 0.725 0  
0.35 0.7375 0  
0.3375 0.75 0  
0.325 0.7375 0  
0.3125 0.7375 0  
0.3125 0.75 0  
0.3 0.7375 0  
0.3625 0.7625 0  
0.3625 0.75 0  
0.375 0.7625 0  
0.3625 0.775 0  
0.35 0.7625 0  
0.3875 0.7875 0  
0.3875 0.775 0  
0.4 0.7875 0  
0.3875 0.8 0  
0.375 0.7875 0  
0.3625 0.7875 0  
0.3625 0.8 0  
0.35 0.7875 0  
0.3375 0.7625 0  
0.3375 0.775 0  
0.325 0.7625 0  
0.2875 0.7125 0  
0.2875 0.725 0  
0.275 0.7125 0  
1.5875 0.7875 0  
1.5875 0.775 0  
1.6 0.7875 0  
1.5875 0.8 0  
1.575 0.7875 0  
0.3875 0.8125 0  
0.4 0.8125 0  
0.3875 0.825 0  
0.375 0.8125 0  
0.4125 0.8125 0  
0.4125 0.8 0  
0.425 0.8125 0  
0.4125 0.825 0  
0.4375 0.8125 0  
0.4375 0.8 0  
0.45 0.8125 0  
0.4375 0.825 0  
0.4375 0.8375 0  
0.45 0.8375 0  
0.4375 0.85 0  
0.425 0.8375 0  
0.4625 0.8375 0  
0.4625 0.825 0  
0.475 0.8375 0  
0.4625 0.85 0  
0.4625 0.8625 0  
0.475 0.8625 0  
0.4625 0.875 0  
0.45 0.8625 0  
0.4875 0.8625 0  
0.4875 0.85 0  
0.5 0.8625 0  
0.4875 0.875 0  
0.5625 0.8875 0  
0.5625 0.875 0  
0.575 0.8875 0  
0.5625 0.9 0  
0.55 0.8875 0  
0.5125 0.8625 0  
0.5125 0.85 0  
0.525 0.8625 0  
0.5125 0.875 0  
0.5375 0.8875 0  
0.5375 0.875 0  
0.5375 0.9 0  
0.525 0.8875 0  
0.5125 0.8875 0  
0.5125 0.9 0  
0.5 0.8875 0  
0.5625 0.9125 0  
0.575 0.9125 0  
0.5625 0.925 0  
0.55 0.9125 0  
0.5875 0.9125 0  
0.5875 0.9 0  
0.6 0.9125 0  
0.5875 0.925 0  
0.7625 0.9625 0  
0.7625 0.95 0  
0.775 0.9625 0  
0.7625 0.975 0  
0.75 0.9625 0  
0.7875 0.9625 0  
0.7875 0.95 0  
0.8 0.9625 0  
0.7875 0.975 0  
0.7875 0.9875 0  
0.8 0.9875 0  
0.7875 1 0  
0.775 0.9875 0  
0.7125 0.9625 0  
0.7125 0.95 0  
0.725 0.9625 0  
0.7125 0.975 0  
0.7 0.9625 0  
0.7375 0.9625 0  
0.7375 0.95 0  
0.7375 0.975 0  
0.6125 0.9125 0  
0.6125 0.9 0  
0.625 0.9125 0  
0.6125 0.925 0  
0.6375 0.9375 0  
0.6375 0.925 0  
0.65 0.9375 0  
0.6375 0.95 0  
0.625 0.9375 0  
0.6125 0.9375 0  
0.6125 0.95 0  
0.6 0.9375 0  
0.6875 0.9375 0  
0.6875 0.925 0  
0.7 0.9375 0  
0.6875 0.95 0  
0.675 0.9375 0  
0.6625 0.9375 0  
0.6625 0.925 0  
0.6625 0.95 0  
0.6875 0.9625 0  
0.6875 0.975 0  
0.675 0.9625 0  
0.9875 0.9875 0  
0.9875 0.975 0  
1 0.9875 0  
0.9875 1 0  
0.975 0.9875 0  
0.9625 0.9875 0  
0.9625 0.975 0  
0.9625 1 0  
0.95 0.9875 0  
0.9375 0.9875 0  
0.9375 0.975 0  
0.9375 1 0  
0.925 0.9875 0  
0.9125 0.9875 0  
0.9125 0.975 0  
0.9125 1 0  
0.9 0.9875 0  
0.8875 0.9875 0  
0.8875 0.975 0  
0.8875 1 0  
0.875 0.9875 0  
0.8625 0.9875 0  
0.8625 0.975 0  
0.8625 1 0  
0.85 0.9875 0  
0.8375 0.9875 0  
0.8375 0.975 0  
0.8375 1 0  
0.825 0.9875 0  
0.8125 0.9875 0  
0.8125 0.975 0  
0.8125 1 0  
1.1875 0.9875 0  
1.1875 0.975 0  
1.2 0.9875 0  
1.1875 1 0  
1.175 0.9875 0  
1.1625 0.9875 0  
1.1625 0.975 0  
1.1625 1 0  
1.15 0.9875 0  
1.1375 0.9875 0  
1.1375 0.975 0  
1.1375 1 0  
1.125 0.9875 0  
1.1125 0.9875 0  
1.1125 0.975 0  
1.1125 1 0  
1.1 0.9875 0  
1.0875 0.9875 0  
1.0875 0.975 0  
1.0875 1 0  
1.075 0.9875 0  
1.0625 0.9875 0  
1.0625 0.975 0  
1.0625 1 0  
1.05 0.9875 0  
1.0375 0.9875 0  
1.0375 0.975 0  
1.0375 1 0  
1.025 0.9875 0  
1.0125 0.9875 0  
1.0125 0.975 0  
1.0125 1 0  
1.3375 0.9375 0  
1.3375 0.925 0  
1.35 0.9375 0  
1.3375 0.95 0  
1.325 0.9375 0  
1.3125 0.9375 0  
1.3125 0.925 0  
1.3125 0.95 0  
1.3 0.9375 0  
1.3875 0.9125 0  
1.3875 0.9 0  
1.4 0.9125 0  
1.3875 0.925 0  
1.375 0.9125 0  
1.3625 0.9375 0  
1.3625 0.925 0  
1.375 0.9375 0  
1.3625 0.95 0  
1.2625 0.9625 0  
1.2625 0.95 0  
1.275 0.9625 0  
1.2625 0.975 0  
1.25 0.9625 0  
1.2875 0.9625 0  
1.2875 0.95 0  
1.3 0.9625 0  
1.2875 0.975 0  
1.2125 0.9625 0  
1.2125 0.95 0  
1.225 0.9625 0  
1.2125 0.975 0  
1.2 0.9625 0  
1.2375 0.9625 0  
1.2375 0.95 0  
1.2375 0.975 0  
0.9875 1.0125 0  
1 1.0125 0  
0.9875 1.025 0  
0.975 1.0125 0  
0.1 0.9 0  
0.1 1 0  
0 0.9 0  
0.15 0.75 0  
0.15 0.8 0  
0.1 0.75 0  
0.25 0.85 0  
0.25 0.9 0  
0.2 0.85 0  
-0.05 0.45 0  
-0.05 0.5 0  
-0.1 0.45 0  
1.95 0.55 0  
2 0.55 0  
1.95 0.6 0  
1.55 0.95 0  
1.6 0.95 0  
1.55 1 0  
0.55 1.05 0  
0.55 1.1 0  
0.5 1.05 0  
0.025 0.425 0  
0.025 0.45 0  
0 0.425 0  
0.225 0.725 0  
0.225 0.75 0  
0.2 0.725 0  
0.275 0.775 0  
0.275 0.8 0  
0.25 0.775 0  
0.575 0.975 0  
0.575 1 0  
0.55 0.975 0  
0.075 0.525 0  
0.075 0.55 0  
0.05 0.525 0  
0.475 0.925 0  
0.475 0.95 0  
0.45 0.925 0  
-0.025 0.275 0  
-0.025 0.3 0  
-0.05 0.275 0  
2.025 0.225 0  
2.05 0.225 0  
2.025 0.25 0  
2.025 0.275 0  
2.05 0.275 0  
2.025 0.3 0  
1.925 0.475 0  
1.95 0.475 0  
1.925 0.5 0  
1.875 0.525 0  
1.9 0.525 0  
1.875 0.55 0  
1.775 0.675 0  
1.8 0.675 0  
1.775 0.7 0  
1.675 0.775 0  
1.7 0.775 0  
1.675 0.8 0  
1.525 0.875 0  
1.55 0.875 0  
1.525 0.9 0  
1.475 0.925 0  
1.5 0.925 0  
1.475 0.95 0  
0.725 1.025 0  
0.725 1.05 0  
0.7 1.025 0  
1.225 1.025 0  
1.25 1.025 0  
1.225 1.05 0  
1.275 1.025 0  
1.3 1.025 0  
1.275 1.05 0  
-0.0125 0.0375 0  
-0.0125 0.05 0  
-0.025 0.0375 0  
0.0125 0.2375 0  
0.0125 0.25 0  
0 0.2375 0  
0.0125 0.2625 0  
0.0125 0.275 0  
0 0.2625 0  
0.0375 0.3375 0  
0.0375 0.35 0  
0.025 0.3375 0  
1.9875 0.2125 0  
2 0.2125 0  
1.9875 0.225 0  
1.9875 0.2375 0  
2 0.2375 0  
1.9875 0.25 0  
1.9875 0.2625 0  
2 0.2625 0  
1.9875 0.275 0  
1.9375 0.3875 0  
1.95 0.3875 0  
1.9375 0.4 0  
0.0625 0.4125 0  
0.0625 0.425 0  
0.05 0.4125 0  
0.1125 0.5125 0  
0.1125 0.525 0  
0.1 0.5125 0  
0.1625 0.5875 0  
0.1625 0.6 0  
0.15 0.5875 0  
0.2375 0.6875 0  
0.2375 0.7 0  
0.225 0.6875 0  
0.3125 0.7625 0  
0.3125 0.775 0  
0.3 0.7625 0  
0.2625 0.7125 0  
0.2625 0.725 0  
0.25 0.7125 0  
0.2875 0.7375 0  
0.2875 0.75 0  
0.275 0.7375 0  
0.4125 0.8375 0  
0.4125 0.85 0  
0.4 0.8375 0  
0.4875 0.8875 0  
0.4875 0.9 0  
0.475 0.8875 0  
0.5875 0.9375 0  
0.5875 0.95 0  
0.575 0.9375 0  
0.7625 0.9875 0  
0.7625 1 0  
0.75 0.9875 0  
0.7375 0.9875 0  
0.7375 1 0  
0.725 0.9875 0  
0.6625 0.9625 0  
0.6625 0.975 0  
0.65 0.9625 0  
1.3875 0.9375 0  
1.4 0.9375 0  
1.3875 0.95 0  
1.2625 0.9875 0  
1.275 0.9875 0  
1.2625 1 0  
1.25 0.9875 0  
1.2375 0.9875 0  
1.2375 1 0  
1.225 0.9875 0  
1.2125 0.9875 0  
1.2125 1 0  
0.9625 1.0125 0  
0.9625 1.025 0  
0.95 1.0125 0  
1.725 0.725 0  
1.75 0.725 0  
1.725 0.75 0  
-0.0125 0.0625 0  
-0.0125 0.075 0  
-0.025 0.0625 0  
-0.0125 0.0875 0  
-0.0125 0.1 0  
-0.025 0.0875 0  
1.9625 0.3125 0  
1.975 0.3125 0  
1.9625 0.325 0  
1.9625 0.3375 0  
1.975 0.3375 0  
1.9625 0.35 0  
0.0875 0.4625 0  
0.0875 0.475 0  
0.075 0.4625 0  
0.5375 0.9125 0  
0.5375 0.925 0  
0.525 0.9125 0  
1.3125 0.9625 0  
1.325 0.9625 0  
1.3125 0.975 0  
1.3375 0.9625 0  
1.35 0.9625 0  
1.3375 0.975 0  
0.9125 1.0125 0  
0.925 1.0125 0  
0.9125 1.025 0  
0.9 1.0125 0  
0.9375 1.0125 0  
0.9375 1.025 0  
1.825 0.625 0  
1.85 0.625 0  
1.825 0.65 0  
1.625 0.825 0  
1.65 0.825 0  
1.625 0.85 0  
-0.0125 0.1125 0  
-0.0125 0.125 0  
-0.025 0.1125 0  
-0.0125 0.1375 0  
-0.0125 0.15 0  
-0.025 0.1375 0  
-0.0125 0.1625 0  
-0.0125 0.175 0  
-0.025 0.1625 0  
0.8375 1.0125 0  
0.85 1.0125 0  
0.8375 1.025 0  
0.825 1.0125 0  
0.8625 1.0125 0  
0.875 1.0125 0  
0.8625 1.025 0  
0.8875 1.0125 0  
0.8875 1.025 0  
2.0125 0.0125 0  
2.0125 0 0  
2.025 0.0125 0  
2.0125 0.025 0  
2.0125 0.0375 0  
2.025 0.0375 0  
2.0125 0.05 0  
2.0125 0.0625 0  
2.025 0.0625 0  
2.0125 0.075 0  
2.0125 0.0875 0  
2.025 0.0875 0  
2.0125 0.1 0  
2.0125 0.1125 0  
2.025 0.1125 0  
2.0125 0.125 0  
2.0125 0.1375 0  
2.025 0.1375 0  
2.0125 0.15 0  
1.8875 0.4375 0  
1.8875 0.425 0  
1.9 0.4375 0  
1.8875 0.45 0  
1.875 0.4375 0  
1.8875 0.4625 0  
1.9 0.4625 0  
1.8875 0.475 0  
1.875 0.4625 0  
1.8625 0.4875 0  
1.8625 0.475 0  
1.875 0.4875 0  
1.8625 0.5 0  
1.85 0.4875 0  
1.9125 0.4125 0  
1.925 0.4125 0  
1.9125 0.425 0  
1.9 0.4125 0  
1.8375 0.5375 0  
1.8375 0.525 0  
1.85 0.5375 0  
1.8375 0.55 0  
1.825 0.5375 0  
1.8125 0.5625 0  
1.8125 0.55 0  
1.825 0.5625 0  
1.8125 0.575 0  
1.8 0.5625 0  
1.8125 0.5875 0  
1.825 0.5875 0  
1.8125 0.6 0  
1.7875 0.6125 0  
1.8 0.6125 0  
1.7875 0.625 0  
1.775 0.6125 0  
1.7625 0.6375 0  
1.7625 0.625 0  
1.775 0.6375 0  
1.7625 0.65 0  
1.75 0.6375 0  
1.7375 0.6625 0  
1.7375 0.65 0  
1.75 0.6625 0  
1.7375 0.675 0  
1.725 0.6625 0  
1.7125 0.6875 0  
1.7125 0.675 0  
1.725 0.6875 0  
1.7125 0.7 0  
1.7 0.6875 0  
1.6875 0.7125 0  
1.6875 0.7 0  
1.7 0.7125 0  
1.6875 0.725 0  
1.675 0.7125 0  
1.6625 0.7375 0  
1.6625 0.725 0  
1.675 0.7375 0  
1.6625 0.75 0  
1.65 0.7375 0  
1.6375 0.7625 0  
1.6375 0.75 0  
1.65 0.7625 0  
1.6375 0.775 0  
1.625 0.7625 0  
1.6125 0.7875 0  
1.6125 0.775 0  
1.625 0.7875 0  
1.6125 0.8 0  
1.4875 0.8625 0  
1.4875 0.85 0  
1.5 0.8625 0  
1.4875 0.875 0  
1.475 0.8625 0  
1.4625 0.8875 0  
1.4625 0.875 0  
1.475 0.8875 0  
1.4625 0.9 0  
1.45 0.8875 0  
1.4375 0.8875 0  
1.4375 0.875 0  
1.4375 0.9 0  
1.425 0.8875 0  
1.5375 0.8375 0  
1.5375 0.825 0  
1.55 0.8375 0  
1.5375 0.85 0  
1.525 0.8375 0  
1.5625 0.8125 0  
1.5625 0.8 0  
1.575 0.8125 0  
1.5625 0.825 0  
1.55 0.8125 0  
1.5875 0.8125 0  
1.6 0.8125 0  
1.5875 0.825 0  
1.4125 0.9125 0  
1.4125 0.9 0  
1.425 0.9125 0  
1.4125 0.925 0  
1.0125 1.0125 0  
1.025 1.0125 0  
1.0125 1.025 0  
1.0375 1.0125 0  
1.05 1.0125 0  
1.0375 1.025 0  
1.0625 1.0125 0  
1.075 1.0125 0  
1.0625 1.025 0  
1.0875 1.0125 0  
1.1 1.0125 0  
1.0875 1.025 0  
1.1125 1.0125 0  
1.125 1.0125 0  
1.1125 1.025 0  
1.1375 1.0125 0  
1.15 1.0125 0  
1.1375 1.025 0  
-0.00625 0.00625 0  
-0.00625 0 0  
0 0.00625 0  
-0.00625 0.0125 0  
-0.0125 0.00625 0  
0.00625 0.00625 0  
0.00625 0 0  
0.0125 0.00625 0  
0.00625 0.0125 0  
0.00625 0.01875 0  
0.0125 0.01875 0  
0.00625 0.025 0  
0 0.01875 0  
0.00625 0.03125 0  
0.0125 0.03125 0  
0.00625 0.0375 0  
0 0.03125 0  
0.00625 0.04375 0  
0.0125 0.04375 0  
0.00625 0.05 0  
0 0.04375 0  
0.00625 0.05625 0  
0.0125 0.05625 0  
0.00625 0.0625 0  
0 0.05625 0  
0.00625 0.06875 0  
0.0125 0.06875 0  
0.00625 0.075 0  
0 0.06875 0  
0.00625 0.08125 0  
0.0125 0.08125 0  
0.00625 0.0875 0  
0 0.08125 0  
0.00625 0.09375 0  
0.0125 0.09375 0  
0.00625 0.1 0  
0 0.09375 0  
0.00625 0.10625 0  
0.0125 0.10625 0  
0.00625 0.1125 0  
0 0.10625 0  
0.00625 0.11875 0  
0.0125 0.11875 0  
0.00625 0.125 0  
0 0.11875 0  
0.00625 0.13125 0  
0.0125 0.13125 0  
0.00625 0.1375 0  
0 0.13125 0  
0.00625 0.14375 0  
0.0125 0.14375 0  
0.00625 0.15 0  
0 0.14375 0  
0.00625 0.15625 0  
0.0125 0.15625 0  